+ 0.1 0 1 tcp 40 ------- 0 0.0 5.0 0 0
- 0.1 0 1 tcp 40 ------- 0 0.0 5.0 0 0
r 0.111067 0 1 tcp 40 ------- 0 0.0 5.0 0 0
+ 0.111067 1 4 tcp 40 ------- 0 0.0 5.0 0 0
- 0.111067 1 4 tcp 40 ------- 0 0.0 5.0 0 0
r 0.122133 1 4 tcp 40 ------- 0 0.0 5.0 0 0
+ 0.122133 4 5 tcp 40 ------- 0 0.0 5.0 0 0
- 0.122133 4 5 tcp 40 ------- 0 0.0 5.0 0 0
r 0.132773 4 5 tcp 40 ------- 0 0.0 5.0 0 0
+ 0.132773 5 4 ack 40 ------- 0 5.0 0.0 0 1
- 0.132773 5 4 ack 40 ------- 0 5.0 0.0 0 1
r 0.143413 5 4 ack 40 ------- 0 5.0 0.0 0 1
+ 0.143413 4 1 ack 40 ------- 0 5.0 0.0 0 1
- 0.143413 4 1 ack 40 ------- 0 5.0 0.0 0 1
r 0.15448 4 1 ack 40 ------- 0 5.0 0.0 0 1
+ 0.15448 1 0 ack 40 ------- 0 5.0 0.0 0 1
- 0.15448 1 0 ack 40 ------- 0 5.0 0.0 0 1
r 0.165547 1 0 ack 40 ------- 0 5.0 0.0 0 1
+ 0.165547 0 1 tcp 1540 ------- 0 0.0 5.0 1 2
- 0.165547 0 1 tcp 1540 ------- 0 0.0 5.0 1 2
+ 0.165547 0 1 tcp 1540 ------- 0 0.0 5.0 2 3
- 0.206613 0 1 tcp 1540 ------- 0 0.0 5.0 2 3
r 0.216613 0 1 tcp 1540 ------- 0 0.0 5.0 1 2
+ 0.216613 1 4 tcp 1540 ------- 0 0.0 5.0 1 2
- 0.216613 1 4 tcp 1540 ------- 0 0.0 5.0 1 2
r 0.25768 0 1 tcp 1540 ------- 0 0.0 5.0 2 3
+ 0.25768 1 4 tcp 1540 ------- 0 0.0 5.0 2 3
- 0.25768 1 4 tcp 1540 ------- 0 0.0 5.0 2 3
r 0.26768 1 4 tcp 1540 ------- 0 0.0 5.0 1 2
+ 0.26768 4 5 tcp 1540 ------- 0 0.0 5.0 1 2
- 0.26768 4 5 tcp 1540 ------- 0 0.0 5.0 1 2
r 0.30232 4 5 tcp 1540 ------- 0 0.0 5.0 1 2
+ 0.30232 5 4 ack 40 ------- 0 5.0 0.0 1 4
- 0.30232 5 4 ack 40 ------- 0 5.0 0.0 1 4
r 0.308747 1 4 tcp 1540 ------- 0 0.0 5.0 2 3
+ 0.308747 4 5 tcp 1540 ------- 0 0.0 5.0 2 3
- 0.308747 4 5 tcp 1540 ------- 0 0.0 5.0 2 3
r 0.31296 5 4 ack 40 ------- 0 5.0 0.0 1 4
+ 0.31296 4 1 ack 40 ------- 0 5.0 0.0 1 4
- 0.31296 4 1 ack 40 ------- 0 5.0 0.0 1 4
r 0.324027 4 1 ack 40 ------- 0 5.0 0.0 1 4
+ 0.324027 1 0 ack 40 ------- 0 5.0 0.0 1 4
- 0.324027 1 0 ack 40 ------- 0 5.0 0.0 1 4
r 0.335093 1 0 ack 40 ------- 0 5.0 0.0 1 4
+ 0.335093 0 1 tcp 1540 ------- 0 0.0 5.0 3 5
- 0.335093 0 1 tcp 1540 ------- 0 0.0 5.0 3 5
+ 0.335093 0 1 tcp 1540 ------- 0 0.0 5.0 4 6
r 0.343387 4 5 tcp 1540 ------- 0 0.0 5.0 2 3
+ 0.343387 5 4 ack 40 ------- 0 5.0 0.0 2 7
- 0.343387 5 4 ack 40 ------- 0 5.0 0.0 2 7
r 0.354027 5 4 ack 40 ------- 0 5.0 0.0 2 7
+ 0.354027 4 1 ack 40 ------- 0 5.0 0.0 2 7
- 0.354027 4 1 ack 40 ------- 0 5.0 0.0 2 7
r 0.365093 4 1 ack 40 ------- 0 5.0 0.0 2 7
+ 0.365093 1 0 ack 40 ------- 0 5.0 0.0 2 7
- 0.365093 1 0 ack 40 ------- 0 5.0 0.0 2 7
r 0.37616 1 0 ack 40 ------- 0 5.0 0.0 2 7
+ 0.37616 0 1 tcp 1540 ------- 0 0.0 5.0 5 8
+ 0.37616 0 1 tcp 1540 ------- 0 0.0 5.0 6 9
- 0.37616 0 1 tcp 1540 ------- 0 0.0 5.0 4 6
r 0.38616 0 1 tcp 1540 ------- 0 0.0 5.0 3 5
+ 0.38616 1 4 tcp 1540 ------- 0 0.0 5.0 3 5
- 0.38616 1 4 tcp 1540 ------- 0 0.0 5.0 3 5
- 0.417227 0 1 tcp 1540 ------- 0 0.0 5.0 5 8
r 0.427227 0 1 tcp 1540 ------- 0 0.0 5.0 4 6
+ 0.427227 1 4 tcp 1540 ------- 0 0.0 5.0 4 6
- 0.427227 1 4 tcp 1540 ------- 0 0.0 5.0 4 6
r 0.437227 1 4 tcp 1540 ------- 0 0.0 5.0 3 5
+ 0.437227 4 5 tcp 1540 ------- 0 0.0 5.0 3 5
- 0.437227 4 5 tcp 1540 ------- 0 0.0 5.0 3 5
- 0.458293 0 1 tcp 1540 ------- 0 0.0 5.0 6 9
r 0.468293 0 1 tcp 1540 ------- 0 0.0 5.0 5 8
+ 0.468293 1 4 tcp 1540 ------- 0 0.0 5.0 5 8
- 0.468293 1 4 tcp 1540 ------- 0 0.0 5.0 5 8
r 0.471867 4 5 tcp 1540 ------- 0 0.0 5.0 3 5
+ 0.471867 5 4 ack 40 ------- 0 5.0 0.0 3 10
- 0.471867 5 4 ack 40 ------- 0 5.0 0.0 3 10
r 0.478293 1 4 tcp 1540 ------- 0 0.0 5.0 4 6
+ 0.478293 4 5 tcp 1540 ------- 0 0.0 5.0 4 6
- 0.478293 4 5 tcp 1540 ------- 0 0.0 5.0 4 6
r 0.482507 5 4 ack 40 ------- 0 5.0 0.0 3 10
+ 0.482507 4 1 ack 40 ------- 0 5.0 0.0 3 10
- 0.482507 4 1 ack 40 ------- 0 5.0 0.0 3 10
r 0.493573 4 1 ack 40 ------- 0 5.0 0.0 3 10
+ 0.493573 1 0 ack 40 ------- 0 5.0 0.0 3 10
- 0.493573 1 0 ack 40 ------- 0 5.0 0.0 3 10
r 0.50464 1 0 ack 40 ------- 0 5.0 0.0 3 10
+ 0.50464 0 1 tcp 1540 ------- 0 0.0 5.0 7 11
- 0.50464 0 1 tcp 1540 ------- 0 0.0 5.0 7 11
+ 0.50464 0 1 tcp 1540 ------- 0 0.0 5.0 8 12
r 0.50936 0 1 tcp 1540 ------- 0 0.0 5.0 6 9
+ 0.50936 1 4 tcp 1540 ------- 0 0.0 5.0 6 9
- 0.50936 1 4 tcp 1540 ------- 0 0.0 5.0 6 9
r 0.512933 4 5 tcp 1540 ------- 0 0.0 5.0 4 6
+ 0.512933 5 4 ack 40 ------- 0 5.0 0.0 4 13
- 0.512933 5 4 ack 40 ------- 0 5.0 0.0 4 13
r 0.51936 1 4 tcp 1540 ------- 0 0.0 5.0 5 8
+ 0.51936 4 5 tcp 1540 ------- 0 0.0 5.0 5 8
- 0.51936 4 5 tcp 1540 ------- 0 0.0 5.0 5 8
r 0.523573 5 4 ack 40 ------- 0 5.0 0.0 4 13
+ 0.523573 4 1 ack 40 ------- 0 5.0 0.0 4 13
- 0.523573 4 1 ack 40 ------- 0 5.0 0.0 4 13
r 0.53464 4 1 ack 40 ------- 0 5.0 0.0 4 13
+ 0.53464 1 0 ack 40 ------- 0 5.0 0.0 4 13
- 0.53464 1 0 ack 40 ------- 0 5.0 0.0 4 13
- 0.545707 0 1 tcp 1540 ------- 0 0.0 5.0 8 12
r 0.545707 1 0 ack 40 ------- 0 5.0 0.0 4 13
+ 0.545707 0 1 tcp 1540 ------- 0 0.0 5.0 9 14
+ 0.545707 0 1 tcp 1540 ------- 0 0.0 5.0 10 15
r 0.554 4 5 tcp 1540 ------- 0 0.0 5.0 5 8
+ 0.554 5 4 ack 40 ------- 0 5.0 0.0 5 16
- 0.554 5 4 ack 40 ------- 0 5.0 0.0 5 16
r 0.555707 0 1 tcp 1540 ------- 0 0.0 5.0 7 11
+ 0.555707 1 4 tcp 1540 ------- 0 0.0 5.0 7 11
- 0.555707 1 4 tcp 1540 ------- 0 0.0 5.0 7 11
r 0.560427 1 4 tcp 1540 ------- 0 0.0 5.0 6 9
+ 0.560427 4 5 tcp 1540 ------- 0 0.0 5.0 6 9
- 0.560427 4 5 tcp 1540 ------- 0 0.0 5.0 6 9
r 0.56464 5 4 ack 40 ------- 0 5.0 0.0 5 16
+ 0.56464 4 1 ack 40 ------- 0 5.0 0.0 5 16
- 0.56464 4 1 ack 40 ------- 0 5.0 0.0 5 16
r 0.575707 4 1 ack 40 ------- 0 5.0 0.0 5 16
+ 0.575707 1 0 ack 40 ------- 0 5.0 0.0 5 16
- 0.575707 1 0 ack 40 ------- 0 5.0 0.0 5 16
- 0.586773 0 1 tcp 1540 ------- 0 0.0 5.0 9 14
r 0.586773 1 0 ack 40 ------- 0 5.0 0.0 5 16
+ 0.586773 0 1 tcp 1540 ------- 0 0.0 5.0 11 17
+ 0.586773 0 1 tcp 1540 ------- 0 0.0 5.0 12 18
r 0.595067 4 5 tcp 1540 ------- 0 0.0 5.0 6 9
+ 0.595067 5 4 ack 40 ------- 0 5.0 0.0 6 19
- 0.595067 5 4 ack 40 ------- 0 5.0 0.0 6 19
r 0.596773 0 1 tcp 1540 ------- 0 0.0 5.0 8 12
+ 0.596773 1 4 tcp 1540 ------- 0 0.0 5.0 8 12
- 0.596773 1 4 tcp 1540 ------- 0 0.0 5.0 8 12
r 0.605707 5 4 ack 40 ------- 0 5.0 0.0 6 19
+ 0.605707 4 1 ack 40 ------- 0 5.0 0.0 6 19
- 0.605707 4 1 ack 40 ------- 0 5.0 0.0 6 19
r 0.606773 1 4 tcp 1540 ------- 0 0.0 5.0 7 11
+ 0.606773 4 5 tcp 1540 ------- 0 0.0 5.0 7 11
- 0.606773 4 5 tcp 1540 ------- 0 0.0 5.0 7 11
r 0.616773 4 1 ack 40 ------- 0 5.0 0.0 6 19
+ 0.616773 1 0 ack 40 ------- 0 5.0 0.0 6 19
- 0.616773 1 0 ack 40 ------- 0 5.0 0.0 6 19
- 0.62784 0 1 tcp 1540 ------- 0 0.0 5.0 10 15
r 0.62784 1 0 ack 40 ------- 0 5.0 0.0 6 19
+ 0.62784 0 1 tcp 1540 ------- 0 0.0 5.0 13 20
+ 0.62784 0 1 tcp 1540 ------- 0 0.0 5.0 14 21
r 0.63784 0 1 tcp 1540 ------- 0 0.0 5.0 9 14
+ 0.63784 1 4 tcp 1540 ------- 0 0.0 5.0 9 14
- 0.63784 1 4 tcp 1540 ------- 0 0.0 5.0 9 14
r 0.641413 4 5 tcp 1540 ------- 0 0.0 5.0 7 11
+ 0.641413 5 4 ack 40 ------- 0 5.0 0.0 7 22
- 0.641413 5 4 ack 40 ------- 0 5.0 0.0 7 22
r 0.64784 1 4 tcp 1540 ------- 0 0.0 5.0 8 12
+ 0.64784 4 5 tcp 1540 ------- 0 0.0 5.0 8 12
- 0.64784 4 5 tcp 1540 ------- 0 0.0 5.0 8 12
r 0.652053 5 4 ack 40 ------- 0 5.0 0.0 7 22
+ 0.652053 4 1 ack 40 ------- 0 5.0 0.0 7 22
- 0.652053 4 1 ack 40 ------- 0 5.0 0.0 7 22
r 0.66312 4 1 ack 40 ------- 0 5.0 0.0 7 22
+ 0.66312 1 0 ack 40 ------- 0 5.0 0.0 7 22
- 0.66312 1 0 ack 40 ------- 0 5.0 0.0 7 22
- 0.668907 0 1 tcp 1540 ------- 0 0.0 5.0 11 17
r 0.674187 1 0 ack 40 ------- 0 5.0 0.0 7 22
+ 0.674187 0 1 tcp 1540 ------- 0 0.0 5.0 15 23
+ 0.674187 0 1 tcp 1540 ------- 0 0.0 5.0 16 24
r 0.678907 0 1 tcp 1540 ------- 0 0.0 5.0 10 15
+ 0.678907 1 4 tcp 1540 ------- 0 0.0 5.0 10 15
- 0.678907 1 4 tcp 1540 ------- 0 0.0 5.0 10 15
r 0.68248 4 5 tcp 1540 ------- 0 0.0 5.0 8 12
+ 0.68248 5 4 ack 40 ------- 0 5.0 0.0 8 25
- 0.68248 5 4 ack 40 ------- 0 5.0 0.0 8 25
r 0.688907 1 4 tcp 1540 ------- 0 0.0 5.0 9 14
+ 0.688907 4 5 tcp 1540 ------- 0 0.0 5.0 9 14
- 0.688907 4 5 tcp 1540 ------- 0 0.0 5.0 9 14
r 0.69312 5 4 ack 40 ------- 0 5.0 0.0 8 25
+ 0.69312 4 1 ack 40 ------- 0 5.0 0.0 8 25
- 0.69312 4 1 ack 40 ------- 0 5.0 0.0 8 25
r 0.704187 4 1 ack 40 ------- 0 5.0 0.0 8 25
+ 0.704187 1 0 ack 40 ------- 0 5.0 0.0 8 25
- 0.704187 1 0 ack 40 ------- 0 5.0 0.0 8 25
- 0.709973 0 1 tcp 1540 ------- 0 0.0 5.0 12 18
r 0.715253 1 0 ack 40 ------- 0 5.0 0.0 8 25
+ 0.715253 0 1 tcp 1540 ------- 0 0.0 5.0 17 26
+ 0.715253 0 1 tcp 1540 ------- 0 0.0 5.0 18 27
r 0.719973 0 1 tcp 1540 ------- 0 0.0 5.0 11 17
+ 0.719973 1 4 tcp 1540 ------- 0 0.0 5.0 11 17
- 0.719973 1 4 tcp 1540 ------- 0 0.0 5.0 11 17
r 0.723547 4 5 tcp 1540 ------- 0 0.0 5.0 9 14
+ 0.723547 5 4 ack 40 ------- 0 5.0 0.0 9 28
- 0.723547 5 4 ack 40 ------- 0 5.0 0.0 9 28
r 0.729973 1 4 tcp 1540 ------- 0 0.0 5.0 10 15
+ 0.729973 4 5 tcp 1540 ------- 0 0.0 5.0 10 15
- 0.729973 4 5 tcp 1540 ------- 0 0.0 5.0 10 15
r 0.734187 5 4 ack 40 ------- 0 5.0 0.0 9 28
+ 0.734187 4 1 ack 40 ------- 0 5.0 0.0 9 28
- 0.734187 4 1 ack 40 ------- 0 5.0 0.0 9 28
r 0.745253 4 1 ack 40 ------- 0 5.0 0.0 9 28
+ 0.745253 1 0 ack 40 ------- 0 5.0 0.0 9 28
- 0.745253 1 0 ack 40 ------- 0 5.0 0.0 9 28
- 0.75104 0 1 tcp 1540 ------- 0 0.0 5.0 13 20
r 0.75632 1 0 ack 40 ------- 0 5.0 0.0 9 28
+ 0.75632 0 1 tcp 1540 ------- 0 0.0 5.0 19 29
+ 0.75632 0 1 tcp 1540 ------- 0 0.0 5.0 20 30
r 0.76104 0 1 tcp 1540 ------- 0 0.0 5.0 12 18
+ 0.76104 1 4 tcp 1540 ------- 0 0.0 5.0 12 18
- 0.76104 1 4 tcp 1540 ------- 0 0.0 5.0 12 18
r 0.764613 4 5 tcp 1540 ------- 0 0.0 5.0 10 15
+ 0.764613 5 4 ack 40 ------- 0 5.0 0.0 10 31
- 0.764613 5 4 ack 40 ------- 0 5.0 0.0 10 31
r 0.77104 1 4 tcp 1540 ------- 0 0.0 5.0 11 17
+ 0.77104 4 5 tcp 1540 ------- 0 0.0 5.0 11 17
- 0.77104 4 5 tcp 1540 ------- 0 0.0 5.0 11 17
r 0.775253 5 4 ack 40 ------- 0 5.0 0.0 10 31
+ 0.775253 4 1 ack 40 ------- 0 5.0 0.0 10 31
- 0.775253 4 1 ack 40 ------- 0 5.0 0.0 10 31
r 0.78632 4 1 ack 40 ------- 0 5.0 0.0 10 31
+ 0.78632 1 0 ack 40 ------- 0 5.0 0.0 10 31
- 0.78632 1 0 ack 40 ------- 0 5.0 0.0 10 31
- 0.792107 0 1 tcp 1540 ------- 0 0.0 5.0 14 21
r 0.797387 1 0 ack 40 ------- 0 5.0 0.0 10 31
+ 0.797387 0 1 tcp 1540 ------- 0 0.0 5.0 21 32
+ 0.797387 0 1 tcp 1540 ------- 0 0.0 5.0 22 33
r 0.802107 0 1 tcp 1540 ------- 0 0.0 5.0 13 20
+ 0.802107 1 4 tcp 1540 ------- 0 0.0 5.0 13 20
- 0.802107 1 4 tcp 1540 ------- 0 0.0 5.0 13 20
r 0.80568 4 5 tcp 1540 ------- 0 0.0 5.0 11 17
+ 0.80568 5 4 ack 40 ------- 0 5.0 0.0 11 34
- 0.80568 5 4 ack 40 ------- 0 5.0 0.0 11 34
r 0.812107 1 4 tcp 1540 ------- 0 0.0 5.0 12 18
+ 0.812107 4 5 tcp 1540 ------- 0 0.0 5.0 12 18
- 0.812107 4 5 tcp 1540 ------- 0 0.0 5.0 12 18
r 0.81632 5 4 ack 40 ------- 0 5.0 0.0 11 34
+ 0.81632 4 1 ack 40 ------- 0 5.0 0.0 11 34
- 0.81632 4 1 ack 40 ------- 0 5.0 0.0 11 34
r 0.827387 4 1 ack 40 ------- 0 5.0 0.0 11 34
+ 0.827387 1 0 ack 40 ------- 0 5.0 0.0 11 34
- 0.827387 1 0 ack 40 ------- 0 5.0 0.0 11 34
- 0.833173 0 1 tcp 1540 ------- 0 0.0 5.0 15 23
r 0.838453 1 0 ack 40 ------- 0 5.0 0.0 11 34
+ 0.838453 0 1 tcp 1540 ------- 0 0.0 5.0 23 35
+ 0.838453 0 1 tcp 1540 ------- 0 0.0 5.0 24 36
r 0.843173 0 1 tcp 1540 ------- 0 0.0 5.0 14 21
+ 0.843173 1 4 tcp 1540 ------- 0 0.0 5.0 14 21
- 0.843173 1 4 tcp 1540 ------- 0 0.0 5.0 14 21
r 0.846747 4 5 tcp 1540 ------- 0 0.0 5.0 12 18
+ 0.846747 5 4 ack 40 ------- 0 5.0 0.0 12 37
- 0.846747 5 4 ack 40 ------- 0 5.0 0.0 12 37
r 0.853173 1 4 tcp 1540 ------- 0 0.0 5.0 13 20
+ 0.853173 4 5 tcp 1540 ------- 0 0.0 5.0 13 20
- 0.853173 4 5 tcp 1540 ------- 0 0.0 5.0 13 20
r 0.857387 5 4 ack 40 ------- 0 5.0 0.0 12 37
+ 0.857387 4 1 ack 40 ------- 0 5.0 0.0 12 37
- 0.857387 4 1 ack 40 ------- 0 5.0 0.0 12 37
r 0.868453 4 1 ack 40 ------- 0 5.0 0.0 12 37
+ 0.868453 1 0 ack 40 ------- 0 5.0 0.0 12 37
- 0.868453 1 0 ack 40 ------- 0 5.0 0.0 12 37
- 0.87424 0 1 tcp 1540 ------- 0 0.0 5.0 16 24
r 0.87952 1 0 ack 40 ------- 0 5.0 0.0 12 37
+ 0.87952 0 1 tcp 1540 ------- 0 0.0 5.0 25 38
+ 0.87952 0 1 tcp 1540 ------- 0 0.0 5.0 26 39
r 0.88424 0 1 tcp 1540 ------- 0 0.0 5.0 15 23
+ 0.88424 1 4 tcp 1540 ------- 0 0.0 5.0 15 23
- 0.88424 1 4 tcp 1540 ------- 0 0.0 5.0 15 23
r 0.887813 4 5 tcp 1540 ------- 0 0.0 5.0 13 20
+ 0.887813 5 4 ack 40 ------- 0 5.0 0.0 13 40
- 0.887813 5 4 ack 40 ------- 0 5.0 0.0 13 40
r 0.89424 1 4 tcp 1540 ------- 0 0.0 5.0 14 21
+ 0.89424 4 5 tcp 1540 ------- 0 0.0 5.0 14 21
- 0.89424 4 5 tcp 1540 ------- 0 0.0 5.0 14 21
r 0.898453 5 4 ack 40 ------- 0 5.0 0.0 13 40
+ 0.898453 4 1 ack 40 ------- 0 5.0 0.0 13 40
- 0.898453 4 1 ack 40 ------- 0 5.0 0.0 13 40
r 0.90952 4 1 ack 40 ------- 0 5.0 0.0 13 40
+ 0.90952 1 0 ack 40 ------- 0 5.0 0.0 13 40
- 0.90952 1 0 ack 40 ------- 0 5.0 0.0 13 40
- 0.915307 0 1 tcp 1540 ------- 0 0.0 5.0 17 26
r 0.920587 1 0 ack 40 ------- 0 5.0 0.0 13 40
+ 0.920587 0 1 tcp 1540 ------- 0 0.0 5.0 27 41
+ 0.920587 0 1 tcp 1540 ------- 0 0.0 5.0 28 42
r 0.925307 0 1 tcp 1540 ------- 0 0.0 5.0 16 24
+ 0.925307 1 4 tcp 1540 ------- 0 0.0 5.0 16 24
- 0.925307 1 4 tcp 1540 ------- 0 0.0 5.0 16 24
r 0.92888 4 5 tcp 1540 ------- 0 0.0 5.0 14 21
+ 0.92888 5 4 ack 40 ------- 0 5.0 0.0 14 43
- 0.92888 5 4 ack 40 ------- 0 5.0 0.0 14 43
r 0.935307 1 4 tcp 1540 ------- 0 0.0 5.0 15 23
+ 0.935307 4 5 tcp 1540 ------- 0 0.0 5.0 15 23
- 0.935307 4 5 tcp 1540 ------- 0 0.0 5.0 15 23
r 0.93952 5 4 ack 40 ------- 0 5.0 0.0 14 43
+ 0.93952 4 1 ack 40 ------- 0 5.0 0.0 14 43
- 0.93952 4 1 ack 40 ------- 0 5.0 0.0 14 43
r 0.950587 4 1 ack 40 ------- 0 5.0 0.0 14 43
+ 0.950587 1 0 ack 40 ------- 0 5.0 0.0 14 43
- 0.950587 1 0 ack 40 ------- 0 5.0 0.0 14 43
- 0.956373 0 1 tcp 1540 ------- 0 0.0 5.0 18 27
r 0.961653 1 0 ack 40 ------- 0 5.0 0.0 14 43
+ 0.961653 0 1 tcp 1540 ------- 0 0.0 5.0 29 44
+ 0.961653 0 1 tcp 1540 ------- 0 0.0 5.0 30 45
r 0.966373 0 1 tcp 1540 ------- 0 0.0 5.0 17 26
+ 0.966373 1 4 tcp 1540 ------- 0 0.0 5.0 17 26
- 0.966373 1 4 tcp 1540 ------- 0 0.0 5.0 17 26
r 0.969947 4 5 tcp 1540 ------- 0 0.0 5.0 15 23
+ 0.969947 5 4 ack 40 ------- 0 5.0 0.0 15 46
- 0.969947 5 4 ack 40 ------- 0 5.0 0.0 15 46
r 0.976373 1 4 tcp 1540 ------- 0 0.0 5.0 16 24
+ 0.976373 4 5 tcp 1540 ------- 0 0.0 5.0 16 24
- 0.976373 4 5 tcp 1540 ------- 0 0.0 5.0 16 24
r 0.980587 5 4 ack 40 ------- 0 5.0 0.0 15 46
+ 0.980587 4 1 ack 40 ------- 0 5.0 0.0 15 46
- 0.980587 4 1 ack 40 ------- 0 5.0 0.0 15 46
r 0.991653 4 1 ack 40 ------- 0 5.0 0.0 15 46
+ 0.991653 1 0 ack 40 ------- 0 5.0 0.0 15 46
- 0.991653 1 0 ack 40 ------- 0 5.0 0.0 15 46
- 0.99744 0 1 tcp 1540 ------- 0 0.0 5.0 19 29
r 1.00272 1 0 ack 40 ------- 0 5.0 0.0 15 46
+ 1.00272 0 1 tcp 1540 ------- 0 0.0 5.0 31 47
+ 1.00272 0 1 tcp 1540 ------- 0 0.0 5.0 32 48
r 1.00744 0 1 tcp 1540 ------- 0 0.0 5.0 18 27
+ 1.00744 1 4 tcp 1540 ------- 0 0.0 5.0 18 27
- 1.00744 1 4 tcp 1540 ------- 0 0.0 5.0 18 27
r 1.011013 4 5 tcp 1540 ------- 0 0.0 5.0 16 24
+ 1.011013 5 4 ack 40 ------- 0 5.0 0.0 16 49
- 1.011013 5 4 ack 40 ------- 0 5.0 0.0 16 49
r 1.01744 1 4 tcp 1540 ------- 0 0.0 5.0 17 26
+ 1.01744 4 5 tcp 1540 ------- 0 0.0 5.0 17 26
- 1.01744 4 5 tcp 1540 ------- 0 0.0 5.0 17 26
r 1.021653 5 4 ack 40 ------- 0 5.0 0.0 16 49
+ 1.021653 4 1 ack 40 ------- 0 5.0 0.0 16 49
- 1.021653 4 1 ack 40 ------- 0 5.0 0.0 16 49
r 1.03272 4 1 ack 40 ------- 0 5.0 0.0 16 49
+ 1.03272 1 0 ack 40 ------- 0 5.0 0.0 16 49
- 1.03272 1 0 ack 40 ------- 0 5.0 0.0 16 49
- 1.038507 0 1 tcp 1540 ------- 0 0.0 5.0 20 30
r 1.043787 1 0 ack 40 ------- 0 5.0 0.0 16 49
+ 1.043787 0 1 tcp 1540 ------- 0 0.0 5.0 33 50
+ 1.043787 0 1 tcp 1540 ------- 0 0.0 5.0 34 51
r 1.048507 0 1 tcp 1540 ------- 0 0.0 5.0 19 29
+ 1.048507 1 4 tcp 1540 ------- 0 0.0 5.0 19 29
- 1.048507 1 4 tcp 1540 ------- 0 0.0 5.0 19 29
r 1.05208 4 5 tcp 1540 ------- 0 0.0 5.0 17 26
+ 1.05208 5 4 ack 40 ------- 0 5.0 0.0 17 52
- 1.05208 5 4 ack 40 ------- 0 5.0 0.0 17 52
r 1.058507 1 4 tcp 1540 ------- 0 0.0 5.0 18 27
+ 1.058507 4 5 tcp 1540 ------- 0 0.0 5.0 18 27
- 1.058507 4 5 tcp 1540 ------- 0 0.0 5.0 18 27
r 1.06272 5 4 ack 40 ------- 0 5.0 0.0 17 52
+ 1.06272 4 1 ack 40 ------- 0 5.0 0.0 17 52
- 1.06272 4 1 ack 40 ------- 0 5.0 0.0 17 52
r 1.073787 4 1 ack 40 ------- 0 5.0 0.0 17 52
+ 1.073787 1 0 ack 40 ------- 0 5.0 0.0 17 52
- 1.073787 1 0 ack 40 ------- 0 5.0 0.0 17 52
- 1.079573 0 1 tcp 1540 ------- 0 0.0 5.0 21 32
r 1.084853 1 0 ack 40 ------- 0 5.0 0.0 17 52
+ 1.084853 0 1 tcp 1540 ------- 0 0.0 5.0 35 53
+ 1.084853 0 1 tcp 1540 ------- 0 0.0 5.0 36 54
r 1.089573 0 1 tcp 1540 ------- 0 0.0 5.0 20 30
+ 1.089573 1 4 tcp 1540 ------- 0 0.0 5.0 20 30
- 1.089573 1 4 tcp 1540 ------- 0 0.0 5.0 20 30
r 1.093147 4 5 tcp 1540 ------- 0 0.0 5.0 18 27
+ 1.093147 5 4 ack 40 ------- 0 5.0 0.0 18 55
- 1.093147 5 4 ack 40 ------- 0 5.0 0.0 18 55
r 1.099573 1 4 tcp 1540 ------- 0 0.0 5.0 19 29
+ 1.099573 4 5 tcp 1540 ------- 0 0.0 5.0 19 29
- 1.099573 4 5 tcp 1540 ------- 0 0.0 5.0 19 29
r 1.103787 5 4 ack 40 ------- 0 5.0 0.0 18 55
+ 1.103787 4 1 ack 40 ------- 0 5.0 0.0 18 55
- 1.103787 4 1 ack 40 ------- 0 5.0 0.0 18 55
r 1.114853 4 1 ack 40 ------- 0 5.0 0.0 18 55
+ 1.114853 1 0 ack 40 ------- 0 5.0 0.0 18 55
- 1.114853 1 0 ack 40 ------- 0 5.0 0.0 18 55
- 1.12064 0 1 tcp 1540 ------- 0 0.0 5.0 22 33
r 1.12592 1 0 ack 40 ------- 0 5.0 0.0 18 55
+ 1.12592 0 1 tcp 1540 ------- 0 0.0 5.0 37 56
+ 1.12592 0 1 tcp 1540 ------- 0 0.0 5.0 38 57
r 1.13064 0 1 tcp 1540 ------- 0 0.0 5.0 21 32
+ 1.13064 1 4 tcp 1540 ------- 0 0.0 5.0 21 32
- 1.13064 1 4 tcp 1540 ------- 0 0.0 5.0 21 32
r 1.134213 4 5 tcp 1540 ------- 0 0.0 5.0 19 29
+ 1.134213 5 4 ack 40 ------- 0 5.0 0.0 19 58
- 1.134213 5 4 ack 40 ------- 0 5.0 0.0 19 58
r 1.14064 1 4 tcp 1540 ------- 0 0.0 5.0 20 30
+ 1.14064 4 5 tcp 1540 ------- 0 0.0 5.0 20 30
- 1.14064 4 5 tcp 1540 ------- 0 0.0 5.0 20 30
r 1.144853 5 4 ack 40 ------- 0 5.0 0.0 19 58
+ 1.144853 4 1 ack 40 ------- 0 5.0 0.0 19 58
- 1.144853 4 1 ack 40 ------- 0 5.0 0.0 19 58
r 1.15592 4 1 ack 40 ------- 0 5.0 0.0 19 58
+ 1.15592 1 0 ack 40 ------- 0 5.0 0.0 19 58
- 1.15592 1 0 ack 40 ------- 0 5.0 0.0 19 58
- 1.161707 0 1 tcp 1540 ------- 0 0.0 5.0 23 35
r 1.166987 1 0 ack 40 ------- 0 5.0 0.0 19 58
+ 1.166987 0 1 tcp 1540 ------- 0 0.0 5.0 39 59
r 1.171707 0 1 tcp 1540 ------- 0 0.0 5.0 22 33
+ 1.171707 1 4 tcp 1540 ------- 0 0.0 5.0 22 33
- 1.171707 1 4 tcp 1540 ------- 0 0.0 5.0 22 33
r 1.17528 4 5 tcp 1540 ------- 0 0.0 5.0 20 30
+ 1.17528 5 4 ack 40 ------- 0 5.0 0.0 20 60
- 1.17528 5 4 ack 40 ------- 0 5.0 0.0 20 60
r 1.181707 1 4 tcp 1540 ------- 0 0.0 5.0 21 32
+ 1.181707 4 5 tcp 1540 ------- 0 0.0 5.0 21 32
- 1.181707 4 5 tcp 1540 ------- 0 0.0 5.0 21 32
r 1.18592 5 4 ack 40 ------- 0 5.0 0.0 20 60
+ 1.18592 4 1 ack 40 ------- 0 5.0 0.0 20 60
- 1.18592 4 1 ack 40 ------- 0 5.0 0.0 20 60
r 1.196987 4 1 ack 40 ------- 0 5.0 0.0 20 60
+ 1.196987 1 0 ack 40 ------- 0 5.0 0.0 20 60
- 1.196987 1 0 ack 40 ------- 0 5.0 0.0 20 60
- 1.202773 0 1 tcp 1540 ------- 0 0.0 5.0 24 36
r 1.208053 1 0 ack 40 ------- 0 5.0 0.0 20 60
+ 1.208053 0 1 tcp 1540 ------- 0 0.0 5.0 40 61
r 1.212773 0 1 tcp 1540 ------- 0 0.0 5.0 23 35
+ 1.212773 1 4 tcp 1540 ------- 0 0.0 5.0 23 35
- 1.212773 1 4 tcp 1540 ------- 0 0.0 5.0 23 35
r 1.216347 4 5 tcp 1540 ------- 0 0.0 5.0 21 32
+ 1.216347 5 4 ack 40 ------- 0 5.0 0.0 21 62
- 1.216347 5 4 ack 40 ------- 0 5.0 0.0 21 62
r 1.222773 1 4 tcp 1540 ------- 0 0.0 5.0 22 33
+ 1.222773 4 5 tcp 1540 ------- 0 0.0 5.0 22 33
- 1.222773 4 5 tcp 1540 ------- 0 0.0 5.0 22 33
r 1.226987 5 4 ack 40 ------- 0 5.0 0.0 21 62
+ 1.226987 4 1 ack 40 ------- 0 5.0 0.0 21 62
- 1.226987 4 1 ack 40 ------- 0 5.0 0.0 21 62
r 1.238053 4 1 ack 40 ------- 0 5.0 0.0 21 62
+ 1.238053 1 0 ack 40 ------- 0 5.0 0.0 21 62
- 1.238053 1 0 ack 40 ------- 0 5.0 0.0 21 62
- 1.24384 0 1 tcp 1540 ------- 0 0.0 5.0 25 38
r 1.24912 1 0 ack 40 ------- 0 5.0 0.0 21 62
+ 1.24912 0 1 tcp 1540 ------- 0 0.0 5.0 41 63
r 1.25384 0 1 tcp 1540 ------- 0 0.0 5.0 24 36
+ 1.25384 1 4 tcp 1540 ------- 0 0.0 5.0 24 36
- 1.25384 1 4 tcp 1540 ------- 0 0.0 5.0 24 36
r 1.257413 4 5 tcp 1540 ------- 0 0.0 5.0 22 33
+ 1.257413 5 4 ack 40 ------- 0 5.0 0.0 22 64
- 1.257413 5 4 ack 40 ------- 0 5.0 0.0 22 64
r 1.26384 1 4 tcp 1540 ------- 0 0.0 5.0 23 35
+ 1.26384 4 5 tcp 1540 ------- 0 0.0 5.0 23 35
- 1.26384 4 5 tcp 1540 ------- 0 0.0 5.0 23 35
r 1.268053 5 4 ack 40 ------- 0 5.0 0.0 22 64
+ 1.268053 4 1 ack 40 ------- 0 5.0 0.0 22 64
- 1.268053 4 1 ack 40 ------- 0 5.0 0.0 22 64
r 1.27912 4 1 ack 40 ------- 0 5.0 0.0 22 64
+ 1.27912 1 0 ack 40 ------- 0 5.0 0.0 22 64
- 1.27912 1 0 ack 40 ------- 0 5.0 0.0 22 64
- 1.284907 0 1 tcp 1540 ------- 0 0.0 5.0 26 39
r 1.290187 1 0 ack 40 ------- 0 5.0 0.0 22 64
+ 1.290187 0 1 tcp 1540 ------- 0 0.0 5.0 42 65
r 1.294907 0 1 tcp 1540 ------- 0 0.0 5.0 25 38
+ 1.294907 1 4 tcp 1540 ------- 0 0.0 5.0 25 38
- 1.294907 1 4 tcp 1540 ------- 0 0.0 5.0 25 38
r 1.29848 4 5 tcp 1540 ------- 0 0.0 5.0 23 35
+ 1.29848 5 4 ack 40 ------- 0 5.0 0.0 23 66
- 1.29848 5 4 ack 40 ------- 0 5.0 0.0 23 66
r 1.304907 1 4 tcp 1540 ------- 0 0.0 5.0 24 36
+ 1.304907 4 5 tcp 1540 ------- 0 0.0 5.0 24 36
- 1.304907 4 5 tcp 1540 ------- 0 0.0 5.0 24 36
r 1.30912 5 4 ack 40 ------- 0 5.0 0.0 23 66
+ 1.30912 4 1 ack 40 ------- 0 5.0 0.0 23 66
- 1.30912 4 1 ack 40 ------- 0 5.0 0.0 23 66
r 1.320187 4 1 ack 40 ------- 0 5.0 0.0 23 66
+ 1.320187 1 0 ack 40 ------- 0 5.0 0.0 23 66
- 1.320187 1 0 ack 40 ------- 0 5.0 0.0 23 66
- 1.325973 0 1 tcp 1540 ------- 0 0.0 5.0 27 41
r 1.331253 1 0 ack 40 ------- 0 5.0 0.0 23 66
+ 1.331253 0 1 tcp 1540 ------- 0 0.0 5.0 43 67
r 1.335973 0 1 tcp 1540 ------- 0 0.0 5.0 26 39
+ 1.335973 1 4 tcp 1540 ------- 0 0.0 5.0 26 39
- 1.335973 1 4 tcp 1540 ------- 0 0.0 5.0 26 39
r 1.339547 4 5 tcp 1540 ------- 0 0.0 5.0 24 36
+ 1.339547 5 4 ack 40 ------- 0 5.0 0.0 24 68
- 1.339547 5 4 ack 40 ------- 0 5.0 0.0 24 68
r 1.345973 1 4 tcp 1540 ------- 0 0.0 5.0 25 38
+ 1.345973 4 5 tcp 1540 ------- 0 0.0 5.0 25 38
- 1.345973 4 5 tcp 1540 ------- 0 0.0 5.0 25 38
r 1.350187 5 4 ack 40 ------- 0 5.0 0.0 24 68
+ 1.350187 4 1 ack 40 ------- 0 5.0 0.0 24 68
- 1.350187 4 1 ack 40 ------- 0 5.0 0.0 24 68
r 1.361253 4 1 ack 40 ------- 0 5.0 0.0 24 68
+ 1.361253 1 0 ack 40 ------- 0 5.0 0.0 24 68
- 1.361253 1 0 ack 40 ------- 0 5.0 0.0 24 68
- 1.36704 0 1 tcp 1540 ------- 0 0.0 5.0 28 42
r 1.37232 1 0 ack 40 ------- 0 5.0 0.0 24 68
+ 1.37232 0 1 tcp 1540 ------- 0 0.0 5.0 44 69
r 1.37704 0 1 tcp 1540 ------- 0 0.0 5.0 27 41
+ 1.37704 1 4 tcp 1540 ------- 0 0.0 5.0 27 41
- 1.37704 1 4 tcp 1540 ------- 0 0.0 5.0 27 41
r 1.380613 4 5 tcp 1540 ------- 0 0.0 5.0 25 38
+ 1.380613 5 4 ack 40 ------- 0 5.0 0.0 25 70
- 1.380613 5 4 ack 40 ------- 0 5.0 0.0 25 70
r 1.38704 1 4 tcp 1540 ------- 0 0.0 5.0 26 39
+ 1.38704 4 5 tcp 1540 ------- 0 0.0 5.0 26 39
- 1.38704 4 5 tcp 1540 ------- 0 0.0 5.0 26 39
r 1.391253 5 4 ack 40 ------- 0 5.0 0.0 25 70
+ 1.391253 4 1 ack 40 ------- 0 5.0 0.0 25 70
- 1.391253 4 1 ack 40 ------- 0 5.0 0.0 25 70
r 1.40232 4 1 ack 40 ------- 0 5.0 0.0 25 70
+ 1.40232 1 0 ack 40 ------- 0 5.0 0.0 25 70
- 1.40232 1 0 ack 40 ------- 0 5.0 0.0 25 70
- 1.408107 0 1 tcp 1540 ------- 0 0.0 5.0 29 44
r 1.413387 1 0 ack 40 ------- 0 5.0 0.0 25 70
+ 1.413387 0 1 tcp 1540 ------- 0 0.0 5.0 45 71
r 1.418107 0 1 tcp 1540 ------- 0 0.0 5.0 28 42
+ 1.418107 1 4 tcp 1540 ------- 0 0.0 5.0 28 42
- 1.418107 1 4 tcp 1540 ------- 0 0.0 5.0 28 42
r 1.42168 4 5 tcp 1540 ------- 0 0.0 5.0 26 39
+ 1.42168 5 4 ack 40 ------- 0 5.0 0.0 26 72
- 1.42168 5 4 ack 40 ------- 0 5.0 0.0 26 72
r 1.428107 1 4 tcp 1540 ------- 0 0.0 5.0 27 41
+ 1.428107 4 5 tcp 1540 ------- 0 0.0 5.0 27 41
- 1.428107 4 5 tcp 1540 ------- 0 0.0 5.0 27 41
r 1.43232 5 4 ack 40 ------- 0 5.0 0.0 26 72
+ 1.43232 4 1 ack 40 ------- 0 5.0 0.0 26 72
- 1.43232 4 1 ack 40 ------- 0 5.0 0.0 26 72
r 1.443387 4 1 ack 40 ------- 0 5.0 0.0 26 72
+ 1.443387 1 0 ack 40 ------- 0 5.0 0.0 26 72
- 1.443387 1 0 ack 40 ------- 0 5.0 0.0 26 72
- 1.449173 0 1 tcp 1540 ------- 0 0.0 5.0 30 45
r 1.454453 1 0 ack 40 ------- 0 5.0 0.0 26 72
+ 1.454453 0 1 tcp 1540 ------- 0 0.0 5.0 46 73
r 1.459173 0 1 tcp 1540 ------- 0 0.0 5.0 29 44
+ 1.459173 1 4 tcp 1540 ------- 0 0.0 5.0 29 44
- 1.459173 1 4 tcp 1540 ------- 0 0.0 5.0 29 44
r 1.462747 4 5 tcp 1540 ------- 0 0.0 5.0 27 41
+ 1.462747 5 4 ack 40 ------- 0 5.0 0.0 27 74
- 1.462747 5 4 ack 40 ------- 0 5.0 0.0 27 74
r 1.469173 1 4 tcp 1540 ------- 0 0.0 5.0 28 42
+ 1.469173 4 5 tcp 1540 ------- 0 0.0 5.0 28 42
- 1.469173 4 5 tcp 1540 ------- 0 0.0 5.0 28 42
r 1.473387 5 4 ack 40 ------- 0 5.0 0.0 27 74
+ 1.473387 4 1 ack 40 ------- 0 5.0 0.0 27 74
- 1.473387 4 1 ack 40 ------- 0 5.0 0.0 27 74
r 1.484453 4 1 ack 40 ------- 0 5.0 0.0 27 74
+ 1.484453 1 0 ack 40 ------- 0 5.0 0.0 27 74
- 1.484453 1 0 ack 40 ------- 0 5.0 0.0 27 74
- 1.49024 0 1 tcp 1540 ------- 0 0.0 5.0 31 47
r 1.49552 1 0 ack 40 ------- 0 5.0 0.0 27 74
+ 1.49552 0 1 tcp 1540 ------- 0 0.0 5.0 47 75
r 1.50024 0 1 tcp 1540 ------- 0 0.0 5.0 30 45
+ 1.50024 1 4 tcp 1540 ------- 0 0.0 5.0 30 45
- 1.50024 1 4 tcp 1540 ------- 0 0.0 5.0 30 45
r 1.503813 4 5 tcp 1540 ------- 0 0.0 5.0 28 42
+ 1.503813 5 4 ack 40 ------- 0 5.0 0.0 28 76
- 1.503813 5 4 ack 40 ------- 0 5.0 0.0 28 76
r 1.51024 1 4 tcp 1540 ------- 0 0.0 5.0 29 44
+ 1.51024 4 5 tcp 1540 ------- 0 0.0 5.0 29 44
- 1.51024 4 5 tcp 1540 ------- 0 0.0 5.0 29 44
r 1.514453 5 4 ack 40 ------- 0 5.0 0.0 28 76
+ 1.514453 4 1 ack 40 ------- 0 5.0 0.0 28 76
- 1.514453 4 1 ack 40 ------- 0 5.0 0.0 28 76
r 1.52552 4 1 ack 40 ------- 0 5.0 0.0 28 76
+ 1.52552 1 0 ack 40 ------- 0 5.0 0.0 28 76
- 1.52552 1 0 ack 40 ------- 0 5.0 0.0 28 76
- 1.531307 0 1 tcp 1540 ------- 0 0.0 5.0 32 48
r 1.536587 1 0 ack 40 ------- 0 5.0 0.0 28 76
+ 1.536587 0 1 tcp 1540 ------- 0 0.0 5.0 48 77
r 1.541307 0 1 tcp 1540 ------- 0 0.0 5.0 31 47
+ 1.541307 1 4 tcp 1540 ------- 0 0.0 5.0 31 47
- 1.541307 1 4 tcp 1540 ------- 0 0.0 5.0 31 47
r 1.54488 4 5 tcp 1540 ------- 0 0.0 5.0 29 44
+ 1.54488 5 4 ack 40 ------- 0 5.0 0.0 29 78
- 1.54488 5 4 ack 40 ------- 0 5.0 0.0 29 78
r 1.551307 1 4 tcp 1540 ------- 0 0.0 5.0 30 45
+ 1.551307 4 5 tcp 1540 ------- 0 0.0 5.0 30 45
- 1.551307 4 5 tcp 1540 ------- 0 0.0 5.0 30 45
r 1.55552 5 4 ack 40 ------- 0 5.0 0.0 29 78
+ 1.55552 4 1 ack 40 ------- 0 5.0 0.0 29 78
- 1.55552 4 1 ack 40 ------- 0 5.0 0.0 29 78
r 1.566587 4 1 ack 40 ------- 0 5.0 0.0 29 78
+ 1.566587 1 0 ack 40 ------- 0 5.0 0.0 29 78
- 1.566587 1 0 ack 40 ------- 0 5.0 0.0 29 78
- 1.572373 0 1 tcp 1540 ------- 0 0.0 5.0 33 50
r 1.577653 1 0 ack 40 ------- 0 5.0 0.0 29 78
+ 1.577653 0 1 tcp 1540 ------- 0 0.0 5.0 49 79
r 1.582373 0 1 tcp 1540 ------- 0 0.0 5.0 32 48
+ 1.582373 1 4 tcp 1540 ------- 0 0.0 5.0 32 48
- 1.582373 1 4 tcp 1540 ------- 0 0.0 5.0 32 48
r 1.585947 4 5 tcp 1540 ------- 0 0.0 5.0 30 45
+ 1.585947 5 4 ack 40 ------- 0 5.0 0.0 30 80
- 1.585947 5 4 ack 40 ------- 0 5.0 0.0 30 80
r 1.592373 1 4 tcp 1540 ------- 0 0.0 5.0 31 47
+ 1.592373 4 5 tcp 1540 ------- 0 0.0 5.0 31 47
- 1.592373 4 5 tcp 1540 ------- 0 0.0 5.0 31 47
r 1.596587 5 4 ack 40 ------- 0 5.0 0.0 30 80
+ 1.596587 4 1 ack 40 ------- 0 5.0 0.0 30 80
- 1.596587 4 1 ack 40 ------- 0 5.0 0.0 30 80
r 1.607653 4 1 ack 40 ------- 0 5.0 0.0 30 80
+ 1.607653 1 0 ack 40 ------- 0 5.0 0.0 30 80
- 1.607653 1 0 ack 40 ------- 0 5.0 0.0 30 80
- 1.61344 0 1 tcp 1540 ------- 0 0.0 5.0 34 51
r 1.61872 1 0 ack 40 ------- 0 5.0 0.0 30 80
+ 1.61872 0 1 tcp 1540 ------- 0 0.0 5.0 50 81
r 1.62344 0 1 tcp 1540 ------- 0 0.0 5.0 33 50
+ 1.62344 1 4 tcp 1540 ------- 0 0.0 5.0 33 50
- 1.62344 1 4 tcp 1540 ------- 0 0.0 5.0 33 50
r 1.627013 4 5 tcp 1540 ------- 0 0.0 5.0 31 47
+ 1.627013 5 4 ack 40 ------- 0 5.0 0.0 31 82
- 1.627013 5 4 ack 40 ------- 0 5.0 0.0 31 82
r 1.63344 1 4 tcp 1540 ------- 0 0.0 5.0 32 48
+ 1.63344 4 5 tcp 1540 ------- 0 0.0 5.0 32 48
- 1.63344 4 5 tcp 1540 ------- 0 0.0 5.0 32 48
r 1.637653 5 4 ack 40 ------- 0 5.0 0.0 31 82
+ 1.637653 4 1 ack 40 ------- 0 5.0 0.0 31 82
- 1.637653 4 1 ack 40 ------- 0 5.0 0.0 31 82
r 1.64872 4 1 ack 40 ------- 0 5.0 0.0 31 82
+ 1.64872 1 0 ack 40 ------- 0 5.0 0.0 31 82
- 1.64872 1 0 ack 40 ------- 0 5.0 0.0 31 82
- 1.654507 0 1 tcp 1540 ------- 0 0.0 5.0 35 53
r 1.659787 1 0 ack 40 ------- 0 5.0 0.0 31 82
+ 1.659787 0 1 tcp 1540 ------- 0 0.0 5.0 51 83
r 1.664507 0 1 tcp 1540 ------- 0 0.0 5.0 34 51
+ 1.664507 1 4 tcp 1540 ------- 0 0.0 5.0 34 51
- 1.664507 1 4 tcp 1540 ------- 0 0.0 5.0 34 51
r 1.66808 4 5 tcp 1540 ------- 0 0.0 5.0 32 48
+ 1.66808 5 4 ack 40 ------- 0 5.0 0.0 32 84
- 1.66808 5 4 ack 40 ------- 0 5.0 0.0 32 84
r 1.674507 1 4 tcp 1540 ------- 0 0.0 5.0 33 50
+ 1.674507 4 5 tcp 1540 ------- 0 0.0 5.0 33 50
- 1.674507 4 5 tcp 1540 ------- 0 0.0 5.0 33 50
r 1.67872 5 4 ack 40 ------- 0 5.0 0.0 32 84
+ 1.67872 4 1 ack 40 ------- 0 5.0 0.0 32 84
- 1.67872 4 1 ack 40 ------- 0 5.0 0.0 32 84
r 1.689787 4 1 ack 40 ------- 0 5.0 0.0 32 84
+ 1.689787 1 0 ack 40 ------- 0 5.0 0.0 32 84
- 1.689787 1 0 ack 40 ------- 0 5.0 0.0 32 84
- 1.695573 0 1 tcp 1540 ------- 0 0.0 5.0 36 54
r 1.700853 1 0 ack 40 ------- 0 5.0 0.0 32 84
+ 1.700853 0 1 tcp 1540 ------- 0 0.0 5.0 52 85
r 1.705573 0 1 tcp 1540 ------- 0 0.0 5.0 35 53
+ 1.705573 1 4 tcp 1540 ------- 0 0.0 5.0 35 53
- 1.705573 1 4 tcp 1540 ------- 0 0.0 5.0 35 53
r 1.709147 4 5 tcp 1540 ------- 0 0.0 5.0 33 50
+ 1.709147 5 4 ack 40 ------- 0 5.0 0.0 33 86
- 1.709147 5 4 ack 40 ------- 0 5.0 0.0 33 86
r 1.715573 1 4 tcp 1540 ------- 0 0.0 5.0 34 51
+ 1.715573 4 5 tcp 1540 ------- 0 0.0 5.0 34 51
- 1.715573 4 5 tcp 1540 ------- 0 0.0 5.0 34 51
r 1.719787 5 4 ack 40 ------- 0 5.0 0.0 33 86
+ 1.719787 4 1 ack 40 ------- 0 5.0 0.0 33 86
- 1.719787 4 1 ack 40 ------- 0 5.0 0.0 33 86
r 1.730853 4 1 ack 40 ------- 0 5.0 0.0 33 86
+ 1.730853 1 0 ack 40 ------- 0 5.0 0.0 33 86
- 1.730853 1 0 ack 40 ------- 0 5.0 0.0 33 86
- 1.73664 0 1 tcp 1540 ------- 0 0.0 5.0 37 56
r 1.74192 1 0 ack 40 ------- 0 5.0 0.0 33 86
+ 1.74192 0 1 tcp 1540 ------- 0 0.0 5.0 53 87
r 1.74664 0 1 tcp 1540 ------- 0 0.0 5.0 36 54
+ 1.74664 1 4 tcp 1540 ------- 0 0.0 5.0 36 54
- 1.74664 1 4 tcp 1540 ------- 0 0.0 5.0 36 54