n -t 0 -s 0 -S DLABEL -l "Server" -L ""
n -t 0 -s 5 -S DLABEL -l "Client" -L ""
V -t * -v 1.0a5 -a 0
A -t * -n 1 -p 0 -o 0x7fffffff -c 30 -a 1
A -t * -h 1 -m 1073741823 -s 0
c -t * -i 1 -n Blue
n -t * -a 4 -s 4 -S UP -v circle -c black -i black
n -t * -a 0 -s 0 -S UP -v circle -c black -i black
n -t * -a 5 -s 5 -S UP -v circle -c black -i black
n -t * -a 1 -s 1 -S UP -v circle -c black -i black
n -t * -a 2 -s 2 -S UP -v circle -c black -i black
n -t * -a 3 -s 3 -S UP -v circle -c black -i black
l -t * -s 0 -d 1 -S UP -r 300000 -D 0.01 -c black
l -t * -s 1 -d 2 -S UP -r 300000 -D 0.01 -c black
l -t * -s 2 -d 3 -S UP -r 300000 -D 0.01 -c black
l -t * -s 1 -d 4 -S UP -r 300000 -D 0.01 -c black
l -t * -s 3 -d 5 -S UP -r 500000 -D 0.01 -c black
l -t * -s 4 -d 5 -S UP -r 500000 -D 0.01 -c black
+ -t 0.1 -s 0 -d 1 -p tcp -e 40 -c 0 -i 0 -a 0 -x {0.0 5.0 0 ------- null}
- -t 0.1 -s 0 -d 1 -p tcp -e 40 -c 0 -i 0 -a 0 -x {0.0 5.0 0 ------- null}
h -t 0.1 -s 0 -d 1 -p tcp -e 40 -c 0 -i 0 -a 0 -x {0.0 5.0 -1 ------- null}
r -t 0.111066666666667 -s 0 -d 1 -p tcp -e 40 -c 0 -i 0 -a 0 -x {0.0 5.0 0 ------- null}
+ -t 0.111066666666667 -s 1 -d 4 -p tcp -e 40 -c 0 -i 0 -a 0 -x {0.0 5.0 0 ------- null}
- -t 0.111066666666667 -s 1 -d 4 -p tcp -e 40 -c 0 -i 0 -a 0 -x {0.0 5.0 0 ------- null}
h -t 0.111066666666667 -s 1 -d 4 -p tcp -e 40 -c 0 -i 0 -a 0 -x {0.0 5.0 -1 ------- null}
r -t 0.122133333333333 -s 1 -d 4 -p tcp -e 40 -c 0 -i 0 -a 0 -x {0.0 5.0 0 ------- null}
+ -t 0.122133333333333 -s 4 -d 5 -p tcp -e 40 -c 0 -i 0 -a 0 -x {0.0 5.0 0 ------- null}
- -t 0.122133333333333 -s 4 -d 5 -p tcp -e 40 -c 0 -i 0 -a 0 -x {0.0 5.0 0 ------- null}
h -t 0.122133333333333 -s 4 -d 5 -p tcp -e 40 -c 0 -i 0 -a 0 -x {0.0 5.0 -1 ------- null}
r -t 0.132773333333333 -s 4 -d 5 -p tcp -e 40 -c 0 -i 0 -a 0 -x {0.0 5.0 0 ------- null}
+ -t 0.132773333333333 -s 5 -d 4 -p ack -e 40 -c 0 -i 1 -a 0 -x {5.0 0.0 0 ------- null}
- -t 0.132773333333333 -s 5 -d 4 -p ack -e 40 -c 0 -i 1 -a 0 -x {5.0 0.0 0 ------- null}
h -t 0.132773333333333 -s 5 -d 4 -p ack -e 40 -c 0 -i 1 -a 0 -x {5.0 0.0 -1 ------- null}
r -t 0.143413333333333 -s 5 -d 4 -p ack -e 40 -c 0 -i 1 -a 0 -x {5.0 0.0 0 ------- null}
+ -t 0.143413333333333 -s 4 -d 1 -p ack -e 40 -c 0 -i 1 -a 0 -x {5.0 0.0 0 ------- null}
- -t 0.143413333333333 -s 4 -d 1 -p ack -e 40 -c 0 -i 1 -a 0 -x {5.0 0.0 0 ------- null}
h -t 0.143413333333333 -s 4 -d 1 -p ack -e 40 -c 0 -i 1 -a 0 -x {5.0 0.0 -1 ------- null}
r -t 0.15448 -s 4 -d 1 -p ack -e 40 -c 0 -i 1 -a 0 -x {5.0 0.0 0 ------- null}
+ -t 0.15448 -s 1 -d 0 -p ack -e 40 -c 0 -i 1 -a 0 -x {5.0 0.0 0 ------- null}
- -t 0.15448 -s 1 -d 0 -p ack -e 40 -c 0 -i 1 -a 0 -x {5.0 0.0 0 ------- null}
h -t 0.15448 -s 1 -d 0 -p ack -e 40 -c 0 -i 1 -a 0 -x {5.0 0.0 -1 ------- null}
r -t 0.165546666666667 -s 1 -d 0 -p ack -e 40 -c 0 -i 1 -a 0 -x {5.0 0.0 0 ------- null}
+ -t 0.165546666666667 -s 0 -d 1 -p tcp -e 1540 -c 0 -i 2 -a 0 -x {0.0 5.0 1 ------- null}
- -t 0.165546666666667 -s 0 -d 1 -p tcp -e 1540 -c 0 -i 2 -a 0 -x {0.0 5.0 1 ------- null}
h -t 0.165546666666667 -s 0 -d 1 -p tcp -e 1540 -c 0 -i 2 -a 0 -x {0.0 5.0 -1 ------- null}
+ -t 0.165546666666667 -s 0 -d 1 -p tcp -e 1540 -c 0 -i 3 -a 0 -x {0.0 5.0 2 ------- null}
- -t 0.206613333333333 -s 0 -d 1 -p tcp -e 1540 -c 0 -i 3 -a 0 -x {0.0 5.0 2 ------- null}
h -t 0.206613333333333 -s 0 -d 1 -p tcp -e 1540 -c 0 -i 3 -a 0 -x {0.0 5.0 -1 ------- null}
r -t 0.216613333333333 -s 0 -d 1 -p tcp -e 1540 -c 0 -i 2 -a 0 -x {0.0 5.0 1 ------- null}
+ -t 0.216613333333333 -s 1 -d 4 -p tcp -e 1540 -c 0 -i 2 -a 0 -x {0.0 5.0 1 ------- null}
- -t 0.216613333333333 -s 1 -d 4 -p tcp -e 1540 -c 0 -i 2 -a 0 -x {0.0 5.0 1 ------- null}
h -t 0.216613333333333 -s 1 -d 4 -p tcp -e 1540 -c 0 -i 2 -a 0 -x {0.0 5.0 -1 ------- null}
r -t 0.25768 -s 0 -d 1 -p tcp -e 1540 -c 0 -i 3 -a 0 -x {0.0 5.0 2 ------- null}
+ -t 0.25768 -s 1 -d 4 -p tcp -e 1540 -c 0 -i 3 -a 0 -x {0.0 5.0 2 ------- null}
- -t 0.25768 -s 1 -d 4 -p tcp -e 1540 -c 0 -i 3 -a 0 -x {0.0 5.0 2 ------- null}
h -t 0.25768 -s 1 -d 4 -p tcp -e 1540 -c 0 -i 3 -a 0 -x {0.0 5.0 -1 ------- null}
r -t 0.26768 -s 1 -d 4 -p tcp -e 1540 -c 0 -i 2 -a 0 -x {0.0 5.0 1 ------- null}
+ -t 0.26768 -s 4 -d 5 -p tcp -e 1540 -c 0 -i 2 -a 0 -x {0.0 5.0 1 ------- null}
- -t 0.26768 -s 4 -d 5 -p tcp -e 1540 -c 0 -i 2 -a 0 -x {0.0 5.0 1 ------- null}
h -t 0.26768 -s 4 -d 5 -p tcp -e 1540 -c 0 -i 2 -a 0 -x {0.0 5.0 -1 ------- null}
r -t 0.30232 -s 4 -d 5 -p tcp -e 1540 -c 0 -i 2 -a 0 -x {0.0 5.0 1 ------- null}
+ -t 0.30232 -s 5 -d 4 -p ack -e 40 -c 0 -i 4 -a 0 -x {5.0 0.0 1 ------- null}
- -t 0.30232 -s 5 -d 4 -p ack -e 40 -c 0 -i 4 -a 0 -x {5.0 0.0 1 ------- null}
h -t 0.30232 -s 5 -d 4 -p ack -e 40 -c 0 -i 4 -a 0 -x {5.0 0.0 -1 ------- null}
r -t 0.308746666666667 -s 1 -d 4 -p tcp -e 1540 -c 0 -i 3 -a 0 -x {0.0 5.0 2 ------- null}
+ -t 0.308746666666667 -s 4 -d 5 -p tcp -e 1540 -c 0 -i 3 -a 0 -x {0.0 5.0 2 ------- null}
- -t 0.308746666666667 -s 4 -d 5 -p tcp -e 1540 -c 0 -i 3 -a 0 -x {0.0 5.0 2 ------- null}
h -t 0.308746666666667 -s 4 -d 5 -p tcp -e 1540 -c 0 -i 3 -a 0 -x {0.0 5.0 -1 ------- null}
r -t 0.31296 -s 5 -d 4 -p ack -e 40 -c 0 -i 4 -a 0 -x {5.0 0.0 1 ------- null}
+ -t 0.31296 -s 4 -d 1 -p ack -e 40 -c 0 -i 4 -a 0 -x {5.0 0.0 1 ------- null}
- -t 0.31296 -s 4 -d 1 -p ack -e 40 -c 0 -i 4 -a 0 -x {5.0 0.0 1 ------- null}
h -t 0.31296 -s 4 -d 1 -p ack -e 40 -c 0 -i 4 -a 0 -x {5.0 0.0 -1 ------- null}
r -t 0.324026666666667 -s 4 -d 1 -p ack -e 40 -c 0 -i 4 -a 0 -x {5.0 0.0 1 ------- null}
+ -t 0.324026666666667 -s 1 -d 0 -p ack -e 40 -c 0 -i 4 -a 0 -x {5.0 0.0 1 ------- null}
- -t 0.324026666666667 -s 1 -d 0 -p ack -e 40 -c 0 -i 4 -a 0 -x {5.0 0.0 1 ------- null}
h -t 0.324026666666667 -s 1 -d 0 -p ack -e 40 -c 0 -i 4 -a 0 -x {5.0 0.0 -1 ------- null}
r -t 0.335093333333333 -s 1 -d 0 -p ack -e 40 -c 0 -i 4 -a 0 -x {5.0 0.0 1 ------- null}
+ -t 0.335093333333333 -s 0 -d 1 -p tcp -e 1540 -c 0 -i 5 -a 0 -x {0.0 5.0 3 ------- null}
- -t 0.335093333333333 -s 0 -d 1 -p tcp -e 1540 -c 0 -i 5 -a 0 -x {0.0 5.0 3 ------- null}
h -t 0.335093333333333 -s 0 -d 1 -p tcp -e 1540 -c 0 -i 5 -a 0 -x {0.0 5.0 -1 ------- null}
+ -t 0.335093333333333 -s 0 -d 1 -p tcp -e 1540 -c 0 -i 6 -a 0 -x {0.0 5.0 4 ------- null}
r -t 0.343386666666667 -s 4 -d 5 -p tcp -e 1540 -c 0 -i 3 -a 0 -x {0.0 5.0 2 ------- null}
+ -t 0.343386666666667 -s 5 -d 4 -p ack -e 40 -c 0 -i 7 -a 0 -x {5.0 0.0 2 ------- null}
- -t 0.343386666666667 -s 5 -d 4 -p ack -e 40 -c 0 -i 7 -a 0 -x {5.0 0.0 2 ------- null}
h -t 0.343386666666667 -s 5 -d 4 -p ack -e 40 -c 0 -i 7 -a 0 -x {5.0 0.0 -1 ------- null}
r -t 0.354026666666667 -s 5 -d 4 -p ack -e 40 -c 0 -i 7 -a 0 -x {5.0 0.0 2 ------- null}
+ -t 0.354026666666667 -s 4 -d 1 -p ack -e 40 -c 0 -i 7 -a 0 -x {5.0 0.0 2 ------- null}
- -t 0.354026666666667 -s 4 -d 1 -p ack -e 40 -c 0 -i 7 -a 0 -x {5.0 0.0 2 ------- null}
h -t 0.354026666666667 -s 4 -d 1 -p ack -e 40 -c 0 -i 7 -a 0 -x {5.0 0.0 -1 ------- null}
r -t 0.365093333333333 -s 4 -d 1 -p ack -e 40 -c 0 -i 7 -a 0 -x {5.0 0.0 2 ------- null}
+ -t 0.365093333333333 -s 1 -d 0 -p ack -e 40 -c 0 -i 7 -a 0 -x {5.0 0.0 2 ------- null}
- -t 0.365093333333333 -s 1 -d 0 -p ack -e 40 -c 0 -i 7 -a 0 -x {5.0 0.0 2 ------- null}
h -t 0.365093333333333 -s 1 -d 0 -p ack -e 40 -c 0 -i 7 -a 0 -x {5.0 0.0 -1 ------- null}
r -t 0.37616 -s 1 -d 0 -p ack -e 40 -c 0 -i 7 -a 0 -x {5.0 0.0 2 ------- null}
+ -t 0.37616 -s 0 -d 1 -p tcp -e 1540 -c 0 -i 8 -a 0 -x {0.0 5.0 5 ------- null}
+ -t 0.37616 -s 0 -d 1 -p tcp -e 1540 -c 0 -i 9 -a 0 -x {0.0 5.0 6 ------- null}
- -t 0.37616 -s 0 -d 1 -p tcp -e 1540 -c 0 -i 6 -a 0 -x {0.0 5.0 4 ------- null}
h -t 0.37616 -s 0 -d 1 -p tcp -e 1540 -c 0 -i 6 -a 0 -x {0.0 5.0 -1 ------- null}
r -t 0.38616 -s 0 -d 1 -p tcp -e 1540 -c 0 -i 5 -a 0 -x {0.0 5.0 3 ------- null}
+ -t 0.38616 -s 1 -d 4 -p tcp -e 1540 -c 0 -i 5 -a 0 -x {0.0 5.0 3 ------- null}
- -t 0.38616 -s 1 -d 4 -p tcp -e 1540 -c 0 -i 5 -a 0 -x {0.0 5.0 3 ------- null}
h -t 0.38616 -s 1 -d 4 -p tcp -e 1540 -c 0 -i 5 -a 0 -x {0.0 5.0 -1 ------- null}
- -t 0.417226666666667 -s 0 -d 1 -p tcp -e 1540 -c 0 -i 8 -a 0 -x {0.0 5.0 5 ------- null}
h -t 0.417226666666667 -s 0 -d 1 -p tcp -e 1540 -c 0 -i 8 -a 0 -x {0.0 5.0 -1 ------- null}
r -t 0.427226666666667 -s 0 -d 1 -p tcp -e 1540 -c 0 -i 6 -a 0 -x {0.0 5.0 4 ------- null}
+ -t 0.427226666666667 -s 1 -d 4 -p tcp -e 1540 -c 0 -i 6 -a 0 -x {0.0 5.0 4 ------- null}
- -t 0.427226666666667 -s 1 -d 4 -p tcp -e 1540 -c 0 -i 6 -a 0 -x {0.0 5.0 4 ------- null}
h -t 0.427226666666667 -s 1 -d 4 -p tcp -e 1540 -c 0 -i 6 -a 0 -x {0.0 5.0 -1 ------- null}
r -t 0.437226666666667 -s 1 -d 4 -p tcp -e 1540 -c 0 -i 5 -a 0 -x {0.0 5.0 3 ------- null}
+ -t 0.437226666666667 -s 4 -d 5 -p tcp -e 1540 -c 0 -i 5 -a 0 -x {0.0 5.0 3 ------- null}
- -t 0.437226666666667 -s 4 -d 5 -p tcp -e 1540 -c 0 -i 5 -a 0 -x {0.0 5.0 3 ------- null}
h -t 0.437226666666667 -s 4 -d 5 -p tcp -e 1540 -c 0 -i 5 -a 0 -x {0.0 5.0 -1 ------- null}
- -t 0.458293333333333 -s 0 -d 1 -p tcp -e 1540 -c 0 -i 9 -a 0 -x {0.0 5.0 6 ------- null}
h -t 0.458293333333333 -s 0 -d 1 -p tcp -e 1540 -c 0 -i 9 -a 0 -x {0.0 5.0 -1 ------- null}
r -t 0.468293333333333 -s 0 -d 1 -p tcp -e 1540 -c 0 -i 8 -a 0 -x {0.0 5.0 5 ------- null}
+ -t 0.468293333333333 -s 1 -d 4 -p tcp -e 1540 -c 0 -i 8 -a 0 -x {0.0 5.0 5 ------- null}
- -t 0.468293333333333 -s 1 -d 4 -p tcp -e 1540 -c 0 -i 8 -a 0 -x {0.0 5.0 5 ------- null}
h -t 0.468293333333333 -s 1 -d 4 -p tcp -e 1540 -c 0 -i 8 -a 0 -x {0.0 5.0 -1 ------- null}
r -t 0.471866666666667 -s 4 -d 5 -p tcp -e 1540 -c 0 -i 5 -a 0 -x {0.0 5.0 3 ------- null}
+ -t 0.471866666666667 -s 5 -d 4 -p ack -e 40 -c 0 -i 10 -a 0 -x {5.0 0.0 3 ------- null}
- -t 0.471866666666667 -s 5 -d 4 -p ack -e 40 -c 0 -i 10 -a 0 -x {5.0 0.0 3 ------- null}
h -t 0.471866666666667 -s 5 -d 4 -p ack -e 40 -c 0 -i 10 -a 0 -x {5.0 0.0 -1 ------- null}
r -t 0.478293333333333 -s 1 -d 4 -p tcp -e 1540 -c 0 -i 6 -a 0 -x {0.0 5.0 4 ------- null}
+ -t 0.478293333333333 -s 4 -d 5 -p tcp -e 1540 -c 0 -i 6 -a 0 -x {0.0 5.0 4 ------- null}
- -t 0.478293333333333 -s 4 -d 5 -p tcp -e 1540 -c 0 -i 6 -a 0 -x {0.0 5.0 4 ------- null}
h -t 0.478293333333333 -s 4 -d 5 -p tcp -e 1540 -c 0 -i 6 -a 0 -x {0.0 5.0 -1 ------- null}
r -t 0.482506666666667 -s 5 -d 4 -p ack -e 40 -c 0 -i 10 -a 0 -x {5.0 0.0 3 ------- null}
+ -t 0.482506666666667 -s 4 -d 1 -p ack -e 40 -c 0 -i 10 -a 0 -x {5.0 0.0 3 ------- null}
- -t 0.482506666666667 -s 4 -d 1 -p ack -e 40 -c 0 -i 10 -a 0 -x {5.0 0.0 3 ------- null}
h -t 0.482506666666667 -s 4 -d 1 -p ack -e 40 -c 0 -i 10 -a 0 -x {5.0 0.0 -1 ------- null}
r -t 0.493573333333333 -s 4 -d 1 -p ack -e 40 -c 0 -i 10 -a 0 -x {5.0 0.0 3 ------- null}
+ -t 0.493573333333333 -s 1 -d 0 -p ack -e 40 -c 0 -i 10 -a 0 -x {5.0 0.0 3 ------- null}
- -t 0.493573333333333 -s 1 -d 0 -p ack -e 40 -c 0 -i 10 -a 0 -x {5.0 0.0 3 ------- null}
h -t 0.493573333333333 -s 1 -d 0 -p ack -e 40 -c 0 -i 10 -a 0 -x {5.0 0.0 -1 ------- null}
r -t 0.50464 -s 1 -d 0 -p ack -e 40 -c 0 -i 10 -a 0 -x {5.0 0.0 3 ------- null}
+ -t 0.50464 -s 0 -d 1 -p tcp -e 1540 -c 0 -i 11 -a 0 -x {0.0 5.0 7 ------- null}
- -t 0.50464 -s 0 -d 1 -p tcp -e 1540 -c 0 -i 11 -a 0 -x {0.0 5.0 7 ------- null}
h -t 0.50464 -s 0 -d 1 -p tcp -e 1540 -c 0 -i 11 -a 0 -x {0.0 5.0 -1 ------- null}
+ -t 0.50464 -s 0 -d 1 -p tcp -e 1540 -c 0 -i 12 -a 0 -x {0.0 5.0 8 ------- null}
r -t 0.50936 -s 0 -d 1 -p tcp -e 1540 -c 0 -i 9 -a 0 -x {0.0 5.0 6 ------- null}
+ -t 0.50936 -s 1 -d 4 -p tcp -e 1540 -c 0 -i 9 -a 0 -x {0.0 5.0 6 ------- null}
- -t 0.50936 -s 1 -d 4 -p tcp -e 1540 -c 0 -i 9 -a 0 -x {0.0 5.0 6 ------- null}
h -t 0.50936 -s 1 -d 4 -p tcp -e 1540 -c 0 -i 9 -a 0 -x {0.0 5.0 -1 ------- null}
r -t 0.512933333333333 -s 4 -d 5 -p tcp -e 1540 -c 0 -i 6 -a 0 -x {0.0 5.0 4 ------- null}
+ -t 0.512933333333333 -s 5 -d 4 -p ack -e 40 -c 0 -i 13 -a 0 -x {5.0 0.0 4 ------- null}
- -t 0.512933333333333 -s 5 -d 4 -p ack -e 40 -c 0 -i 13 -a 0 -x {5.0 0.0 4 ------- null}
h -t 0.512933333333333 -s 5 -d 4 -p ack -e 40 -c 0 -i 13 -a 0 -x {5.0 0.0 -1 ------- null}
r -t 0.51936 -s 1 -d 4 -p tcp -e 1540 -c 0 -i 8 -a 0 -x {0.0 5.0 5 ------- null}
+ -t 0.51936 -s 4 -d 5 -p tcp -e 1540 -c 0 -i 8 -a 0 -x {0.0 5.0 5 ------- null}
- -t 0.51936 -s 4 -d 5 -p tcp -e 1540 -c 0 -i 8 -a 0 -x {0.0 5.0 5 ------- null}
h -t 0.51936 -s 4 -d 5 -p tcp -e 1540 -c 0 -i 8 -a 0 -x {0.0 5.0 -1 ------- null}
r -t 0.523573333333333 -s 5 -d 4 -p ack -e 40 -c 0 -i 13 -a 0 -x {5.0 0.0 4 ------- null}
+ -t 0.523573333333333 -s 4 -d 1 -p ack -e 40 -c 0 -i 13 -a 0 -x {5.0 0.0 4 ------- null}
- -t 0.523573333333333 -s 4 -d 1 -p ack -e 40 -c 0 -i 13 -a 0 -x {5.0 0.0 4 ------- null}
h -t 0.523573333333333 -s 4 -d 1 -p ack -e 40 -c 0 -i 13 -a 0 -x {5.0 0.0 -1 ------- null}
r -t 0.53464 -s 4 -d 1 -p ack -e 40 -c 0 -i 13 -a 0 -x {5.0 0.0 4 ------- null}
+ -t 0.53464 -s 1 -d 0 -p ack -e 40 -c 0 -i 13 -a 0 -x {5.0 0.0 4 ------- null}
- -t 0.53464 -s 1 -d 0 -p ack -e 40 -c 0 -i 13 -a 0 -x {5.0 0.0 4 ------- null}
h -t 0.53464 -s 1 -d 0 -p ack -e 40 -c 0 -i 13 -a 0 -x {5.0 0.0 -1 ------- null}
- -t 0.545706666666667 -s 0 -d 1 -p tcp -e 1540 -c 0 -i 12 -a 0 -x {0.0 5.0 8 ------- null}
h -t 0.545706666666667 -s 0 -d 1 -p tcp -e 1540 -c 0 -i 12 -a 0 -x {0.0 5.0 -1 ------- null}
r -t 0.545706666666667 -s 1 -d 0 -p ack -e 40 -c 0 -i 13 -a 0 -x {5.0 0.0 4 ------- null}
+ -t 0.545706666666667 -s 0 -d 1 -p tcp -e 1540 -c 0 -i 14 -a 0 -x {0.0 5.0 9 ------- null}
+ -t 0.545706666666667 -s 0 -d 1 -p tcp -e 1540 -c 0 -i 15 -a 0 -x {0.0 5.0 10 ------- null}
r -t 0.554 -s 4 -d 5 -p tcp -e 1540 -c 0 -i 8 -a 0 -x {0.0 5.0 5 ------- null}
+ -t 0.554 -s 5 -d 4 -p ack -e 40 -c 0 -i 16 -a 0 -x {5.0 0.0 5 ------- null}
- -t 0.554 -s 5 -d 4 -p ack -e 40 -c 0 -i 16 -a 0 -x {5.0 0.0 5 ------- null}
h -t 0.554 -s 5 -d 4 -p ack -e 40 -c 0 -i 16 -a 0 -x {5.0 0.0 -1 ------- null}
r -t 0.555706666666667 -s 0 -d 1 -p tcp -e 1540 -c 0 -i 11 -a 0 -x {0.0 5.0 7 ------- null}
+ -t 0.555706666666667 -s 1 -d 4 -p tcp -e 1540 -c 0 -i 11 -a 0 -x {0.0 5.0 7 ------- null}
- -t 0.555706666666667 -s 1 -d 4 -p tcp -e 1540 -c 0 -i 11 -a 0 -x {0.0 5.0 7 ------- null}
h -t 0.555706666666667 -s 1 -d 4 -p tcp -e 1540 -c 0 -i 11 -a 0 -x {0.0 5.0 -1 ------- null}
r -t 0.560426666666667 -s 1 -d 4 -p tcp -e 1540 -c 0 -i 9 -a 0 -x {0.0 5.0 6 ------- null}
+ -t 0.560426666666667 -s 4 -d 5 -p tcp -e 1540 -c 0 -i 9 -a 0 -x {0.0 5.0 6 ------- null}
- -t 0.560426666666667 -s 4 -d 5 -p tcp -e 1540 -c 0 -i 9 -a 0 -x {0.0 5.0 6 ------- null}
h -t 0.560426666666667 -s 4 -d 5 -p tcp -e 1540 -c 0 -i 9 -a 0 -x {0.0 5.0 -1 ------- null}
r -t 0.56464 -s 5 -d 4 -p ack -e 40 -c 0 -i 16 -a 0 -x {5.0 0.0 5 ------- null}
+ -t 0.56464 -s 4 -d 1 -p ack -e 40 -c 0 -i 16 -a 0 -x {5.0 0.0 5 ------- null}
- -t 0.56464 -s 4 -d 1 -p ack -e 40 -c 0 -i 16 -a 0 -x {5.0 0.0 5 ------- null}
h -t 0.56464 -s 4 -d 1 -p ack -e 40 -c 0 -i 16 -a 0 -x {5.0 0.0 -1 ------- null}
r -t 0.575706666666667 -s 4 -d 1 -p ack -e 40 -c 0 -i 16 -a 0 -x {5.0 0.0 5 ------- null}
+ -t 0.575706666666667 -s 1 -d 0 -p ack -e 40 -c 0 -i 16 -a 0 -x {5.0 0.0 5 ------- null}
- -t 0.575706666666667 -s 1 -d 0 -p ack -e 40 -c 0 -i 16 -a 0 -x {5.0 0.0 5 ------- null}
h -t 0.575706666666667 -s 1 -d 0 -p ack -e 40 -c 0 -i 16 -a 0 -x {5.0 0.0 -1 ------- null}
- -t 0.586773333333333 -s 0 -d 1 -p tcp -e 1540 -c 0 -i 14 -a 0 -x {0.0 5.0 9 ------- null}
h -t 0.586773333333333 -s 0 -d 1 -p tcp -e 1540 -c 0 -i 14 -a 0 -x {0.0 5.0 -1 ------- null}
r -t 0.586773333333333 -s 1 -d 0 -p ack -e 40 -c 0 -i 16 -a 0 -x {5.0 0.0 5 ------- null}
+ -t 0.586773333333333 -s 0 -d 1 -p tcp -e 1540 -c 0 -i 17 -a 0 -x {0.0 5.0 11 ------- null}
+ -t 0.586773333333333 -s 0 -d 1 -p tcp -e 1540 -c 0 -i 18 -a 0 -x {0.0 5.0 12 ------- null}
r -t 0.595066666666667 -s 4 -d 5 -p tcp -e 1540 -c 0 -i 9 -a 0 -x {0.0 5.0 6 ------- null}
+ -t 0.595066666666667 -s 5 -d 4 -p ack -e 40 -c 0 -i 19 -a 0 -x {5.0 0.0 6 ------- null}
- -t 0.595066666666667 -s 5 -d 4 -p ack -e 40 -c 0 -i 19 -a 0 -x {5.0 0.0 6 ------- null}
h -t 0.595066666666667 -s 5 -d 4 -p ack -e 40 -c 0 -i 19 -a 0 -x {5.0 0.0 -1 ------- null}
r -t 0.596773333333333 -s 0 -d 1 -p tcp -e 1540 -c 0 -i 12 -a 0 -x {0.0 5.0 8 ------- null}
+ -t 0.596773333333333 -s 1 -d 4 -p tcp -e 1540 -c 0 -i 12 -a 0 -x {0.0 5.0 8 ------- null}
- -t 0.596773333333333 -s 1 -d 4 -p tcp -e 1540 -c 0 -i 12 -a 0 -x {0.0 5.0 8 ------- null}
h -t 0.596773333333333 -s 1 -d 4 -p tcp -e 1540 -c 0 -i 12 -a 0 -x {0.0 5.0 -1 ------- null}
r -t 0.605706666666667 -s 5 -d 4 -p ack -e 40 -c 0 -i 19 -a 0 -x {5.0 0.0 6 ------- null}
+ -t 0.605706666666667 -s 4 -d 1 -p ack -e 40 -c 0 -i 19 -a 0 -x {5.0 0.0 6 ------- null}
- -t 0.605706666666667 -s 4 -d 1 -p ack -e 40 -c 0 -i 19 -a 0 -x {5.0 0.0 6 ------- null}
h -t 0.605706666666667 -s 4 -d 1 -p ack -e 40 -c 0 -i 19 -a 0 -x {5.0 0.0 -1 ------- null}
r -t 0.606773333333333 -s 1 -d 4 -p tcp -e 1540 -c 0 -i 11 -a 0 -x {0.0 5.0 7 ------- null}
+ -t 0.606773333333333 -s 4 -d 5 -p tcp -e 1540 -c 0 -i 11 -a 0 -x {0.0 5.0 7 ------- null}
- -t 0.606773333333333 -s 4 -d 5 -p tcp -e 1540 -c 0 -i 11 -a 0 -x {0.0 5.0 7 ------- null}
h -t 0.606773333333333 -s 4 -d 5 -p tcp -e 1540 -c 0 -i 11 -a 0 -x {0.0 5.0 -1 ------- null}
r -t 0.616773333333334 -s 4 -d 1 -p ack -e 40 -c 0 -i 19 -a 0 -x {5.0 0.0 6 ------- null}
+ -t 0.616773333333334 -s 1 -d 0 -p ack -e 40 -c 0 -i 19 -a 0 -x {5.0 0.0 6 ------- null}
- -t 0.616773333333334 -s 1 -d 0 -p ack -e 40 -c 0 -i 19 -a 0 -x {5.0 0.0 6 ------- null}
h -t 0.616773333333334 -s 1 -d 0 -p ack -e 40 -c 0 -i 19 -a 0 -x {5.0 0.0 -1 ------- null}
- -t 0.62784 -s 0 -d 1 -p tcp -e 1540 -c 0 -i 15 -a 0 -x {0.0 5.0 10 ------- null}
h -t 0.62784 -s 0 -d 1 -p tcp -e 1540 -c 0 -i 15 -a 0 -x {0.0 5.0 -1 ------- null}
r -t 0.62784 -s 1 -d 0 -p ack -e 40 -c 0 -i 19 -a 0 -x {5.0 0.0 6 ------- null}
+ -t 0.62784 -s 0 -d 1 -p tcp -e 1540 -c 0 -i 20 -a 0 -x {0.0 5.0 13 ------- null}
+ -t 0.62784 -s 0 -d 1 -p tcp -e 1540 -c 0 -i 21 -a 0 -x {0.0 5.0 14 ------- null}
r -t 0.63784 -s 0 -d 1 -p tcp -e 1540 -c 0 -i 14 -a 0 -x {0.0 5.0 9 ------- null}
+ -t 0.63784 -s 1 -d 4 -p tcp -e 1540 -c 0 -i 14 -a 0 -x {0.0 5.0 9 ------- null}
- -t 0.63784 -s 1 -d 4 -p tcp -e 1540 -c 0 -i 14 -a 0 -x {0.0 5.0 9 ------- null}
h -t 0.63784 -s 1 -d 4 -p tcp -e 1540 -c 0 -i 14 -a 0 -x {0.0 5.0 -1 ------- null}
r -t 0.641413333333333 -s 4 -d 5 -p tcp -e 1540 -c 0 -i 11 -a 0 -x {0.0 5.0 7 ------- null}
+ -t 0.641413333333333 -s 5 -d 4 -p ack -e 40 -c 0 -i 22 -a 0 -x {5.0 0.0 7 ------- null}
- -t 0.641413333333333 -s 5 -d 4 -p ack -e 40 -c 0 -i 22 -a 0 -x {5.0 0.0 7 ------- null}
h -t 0.641413333333333 -s 5 -d 4 -p ack -e 40 -c 0 -i 22 -a 0 -x {5.0 0.0 -1 ------- null}
r -t 0.64784 -s 1 -d 4 -p tcp -e 1540 -c 0 -i 12 -a 0 -x {0.0 5.0 8 ------- null}
+ -t 0.64784 -s 4 -d 5 -p tcp -e 1540 -c 0 -i 12 -a 0 -x {0.0 5.0 8 ------- null}
- -t 0.64784 -s 4 -d 5 -p tcp -e 1540 -c 0 -i 12 -a 0 -x {0.0 5.0 8 ------- null}
h -t 0.64784 -s 4 -d 5 -p tcp -e 1540 -c 0 -i 12 -a 0 -x {0.0 5.0 -1 ------- null}
r -t 0.652053333333333 -s 5 -d 4 -p ack -e 40 -c 0 -i 22 -a 0 -x {5.0 0.0 7 ------- null}
+ -t 0.652053333333333 -s 4 -d 1 -p ack -e 40 -c 0 -i 22 -a 0 -x {5.0 0.0 7 ------- null}
- -t 0.652053333333333 -s 4 -d 1 -p ack -e 40 -c 0 -i 22 -a 0 -x {5.0 0.0 7 ------- null}
h -t 0.652053333333333 -s 4 -d 1 -p ack -e 40 -c 0 -i 22 -a 0 -x {5.0 0.0 -1 ------- null}
r -t 0.66312 -s 4 -d 1 -p ack -e 40 -c 0 -i 22 -a 0 -x {5.0 0.0 7 ------- null}
+ -t 0.66312 -s 1 -d 0 -p ack -e 40 -c 0 -i 22 -a 0 -x {5.0 0.0 7 ------- null}
- -t 0.66312 -s 1 -d 0 -p ack -e 40 -c 0 -i 22 -a 0 -x {5.0 0.0 7 ------- null}
h -t 0.66312 -s 1 -d 0 -p ack -e 40 -c 0 -i 22 -a 0 -x {5.0 0.0 -1 ------- null}
- -t 0.668906666666667 -s 0 -d 1 -p tcp -e 1540 -c 0 -i 17 -a 0 -x {0.0 5.0 11 ------- null}
h -t 0.668906666666667 -s 0 -d 1 -p tcp -e 1540 -c 0 -i 17 -a 0 -x {0.0 5.0 -1 ------- null}
r -t 0.674186666666667 -s 1 -d 0 -p ack -e 40 -c 0 -i 22 -a 0 -x {5.0 0.0 7 ------- null}
+ -t 0.674186666666667 -s 0 -d 1 -p tcp -e 1540 -c 0 -i 23 -a 0 -x {0.0 5.0 15 ------- null}
+ -t 0.674186666666667 -s 0 -d 1 -p tcp -e 1540 -c 0 -i 24 -a 0 -x {0.0 5.0 16 ------- null}
r -t 0.678906666666667 -s 0 -d 1 -p tcp -e 1540 -c 0 -i 15 -a 0 -x {0.0 5.0 10 ------- null}
+ -t 0.678906666666667 -s 1 -d 4 -p tcp -e 1540 -c 0 -i 15 -a 0 -x {0.0 5.0 10 ------- null}
- -t 0.678906666666667 -s 1 -d 4 -p tcp -e 1540 -c 0 -i 15 -a 0 -x {0.0 5.0 10 ------- null}
h -t 0.678906666666667 -s 1 -d 4 -p tcp -e 1540 -c 0 -i 15 -a 0 -x {0.0 5.0 -1 ------- null}
r -t 0.68248 -s 4 -d 5 -p tcp -e 1540 -c 0 -i 12 -a 0 -x {0.0 5.0 8 ------- null}
+ -t 0.68248 -s 5 -d 4 -p ack -e 40 -c 0 -i 25 -a 0 -x {5.0 0.0 8 ------- null}
- -t 0.68248 -s 5 -d 4 -p ack -e 40 -c 0 -i 25 -a 0 -x {5.0 0.0 8 ------- null}
h -t 0.68248 -s 5 -d 4 -p ack -e 40 -c 0 -i 25 -a 0 -x {5.0 0.0 -1 ------- null}
r -t 0.688906666666667 -s 1 -d 4 -p tcp -e 1540 -c 0 -i 14 -a 0 -x {0.0 5.0 9 ------- null}
+ -t 0.688906666666667 -s 4 -d 5 -p tcp -e 1540 -c 0 -i 14 -a 0 -x {0.0 5.0 9 ------- null}
- -t 0.688906666666667 -s 4 -d 5 -p tcp -e 1540 -c 0 -i 14 -a 0 -x {0.0 5.0 9 ------- null}
h -t 0.688906666666667 -s 4 -d 5 -p tcp -e 1540 -c 0 -i 14 -a 0 -x {0.0 5.0 -1 ------- null}
r -t 0.69312 -s 5 -d 4 -p ack -e 40 -c 0 -i 25 -a 0 -x {5.0 0.0 8 ------- null}
+ -t 0.69312 -s 4 -d 1 -p ack -e 40 -c 0 -i 25 -a 0 -x {5.0 0.0 8 ------- null}
- -t 0.69312 -s 4 -d 1 -p ack -e 40 -c 0 -i 25 -a 0 -x {5.0 0.0 8 ------- null}
h -t 0.69312 -s 4 -d 1 -p ack -e 40 -c 0 -i 25 -a 0 -x {5.0 0.0 -1 ------- null}
r -t 0.704186666666667 -s 4 -d 1 -p ack -e 40 -c 0 -i 25 -a 0 -x {5.0 0.0 8 ------- null}
+ -t 0.704186666666667 -s 1 -d 0 -p ack -e 40 -c 0 -i 25 -a 0 -x {5.0 0.0 8 ------- null}
- -t 0.704186666666667 -s 1 -d 0 -p ack -e 40 -c 0 -i 25 -a 0 -x {5.0 0.0 8 ------- null}
h -t 0.704186666666667 -s 1 -d 0 -p ack -e 40 -c 0 -i 25 -a 0 -x {5.0 0.0 -1 ------- null}
- -t 0.709973333333333 -s 0 -d 1 -p tcp -e 1540 -c 0 -i 18 -a 0 -x {0.0 5.0 12 ------- null}
h -t 0.709973333333333 -s 0 -d 1 -p tcp -e 1540 -c 0 -i 18 -a 0 -x {0.0 5.0 -1 ------- null}
r -t 0.715253333333333 -s 1 -d 0 -p ack -e 40 -c 0 -i 25 -a 0 -x {5.0 0.0 8 ------- null}
+ -t 0.715253333333333 -s 0 -d 1 -p tcp -e 1540 -c 0 -i 26 -a 0 -x {0.0 5.0 17 ------- null}
+ -t 0.715253333333333 -s 0 -d 1 -p tcp -e 1540 -c 0 -i 27 -a 0 -x {0.0 5.0 18 ------- null}
r -t 0.719973333333333 -s 0 -d 1 -p tcp -e 1540 -c 0 -i 17 -a 0 -x {0.0 5.0 11 ------- null}
+ -t 0.719973333333333 -s 1 -d 4 -p tcp -e 1540 -c 0 -i 17 -a 0 -x {0.0 5.0 11 ------- null}
- -t 0.719973333333333 -s 1 -d 4 -p tcp -e 1540 -c 0 -i 17 -a 0 -x {0.0 5.0 11 ------- null}
h -t 0.719973333333333 -s 1 -d 4 -p tcp -e 1540 -c 0 -i 17 -a 0 -x {0.0 5.0 -1 ------- null}
r -t 0.723546666666667 -s 4 -d 5 -p tcp -e 1540 -c 0 -i 14 -a 0 -x {0.0 5.0 9 ------- null}
+ -t 0.723546666666667 -s 5 -d 4 -p ack -e 40 -c 0 -i 28 -a 0 -x {5.0 0.0 9 ------- null}
- -t 0.723546666666667 -s 5 -d 4 -p ack -e 40 -c 0 -i 28 -a 0 -x {5.0 0.0 9 ------- null}
h -t 0.723546666666667 -s 5 -d 4 -p ack -e 40 -c 0 -i 28 -a 0 -x {5.0 0.0 -1 ------- null}
r -t 0.729973333333333 -s 1 -d 4 -p tcp -e 1540 -c 0 -i 15 -a 0 -x {0.0 5.0 10 ------- null}
+ -t 0.729973333333333 -s 4 -d 5 -p tcp -e 1540 -c 0 -i 15 -a 0 -x {0.0 5.0 10 ------- null}
- -t 0.729973333333333 -s 4 -d 5 -p tcp -e 1540 -c 0 -i 15 -a 0 -x {0.0 5.0 10 ------- null}
h -t 0.729973333333333 -s 4 -d 5 -p tcp -e 1540 -c 0 -i 15 -a 0 -x {0.0 5.0 -1 ------- null}
r -t 0.734186666666667 -s 5 -d 4 -p ack -e 40 -c 0 -i 28 -a 0 -x {5.0 0.0 9 ------- null}
+ -t 0.734186666666667 -s 4 -d 1 -p ack -e 40 -c 0 -i 28 -a 0 -x {5.0 0.0 9 ------- null}
- -t 0.734186666666667 -s 4 -d 1 -p ack -e 40 -c 0 -i 28 -a 0 -x {5.0 0.0 9 ------- null}
h -t 0.734186666666667 -s 4 -d 1 -p ack -e 40 -c 0 -i 28 -a 0 -x {5.0 0.0 -1 ------- null}
r -t 0.745253333333333 -s 4 -d 1 -p ack -e 40 -c 0 -i 28 -a 0 -x {5.0 0.0 9 ------- null}
+ -t 0.745253333333333 -s 1 -d 0 -p ack -e 40 -c 0 -i 28 -a 0 -x {5.0 0.0 9 ------- null}
- -t 0.745253333333333 -s 1 -d 0 -p ack -e 40 -c 0 -i 28 -a 0 -x {5.0 0.0 9 ------- null}
h -t 0.745253333333333 -s 1 -d 0 -p ack -e 40 -c 0 -i 28 -a 0 -x {5.0 0.0 -1 ------- null}
- -t 0.75104 -s 0 -d 1 -p tcp -e 1540 -c 0 -i 20 -a 0 -x {0.0 5.0 13 ------- null}
h -t 0.75104 -s 0 -d 1 -p tcp -e 1540 -c 0 -i 20 -a 0 -x {0.0 5.0 -1 ------- null}
r -t 0.75632 -s 1 -d 0 -p ack -e 40 -c 0 -i 28 -a 0 -x {5.0 0.0 9 ------- null}
+ -t 0.75632 -s 0 -d 1 -p tcp -e 1540 -c 0 -i 29 -a 0 -x {0.0 5.0 19 ------- null}
+ -t 0.75632 -s 0 -d 1 -p tcp -e 1540 -c 0 -i 30 -a 0 -x {0.0 5.0 20 ------- null}
r -t 0.76104 -s 0 -d 1 -p tcp -e 1540 -c 0 -i 18 -a 0 -x {0.0 5.0 12 ------- null}
+ -t 0.76104 -s 1 -d 4 -p tcp -e 1540 -c 0 -i 18 -a 0 -x {0.0 5.0 12 ------- null}
- -t 0.76104 -s 1 -d 4 -p tcp -e 1540 -c 0 -i 18 -a 0 -x {0.0 5.0 12 ------- null}
h -t 0.76104 -s 1 -d 4 -p tcp -e 1540 -c 0 -i 18 -a 0 -x {0.0 5.0 -1 ------- null}
r -t 0.764613333333333 -s 4 -d 5 -p tcp -e 1540 -c 0 -i 15 -a 0 -x {0.0 5.0 10 ------- null}
+ -t 0.764613333333333 -s 5 -d 4 -p ack -e 40 -c 0 -i 31 -a 0 -x {5.0 0.0 10 ------- null}
- -t 0.764613333333333 -s 5 -d 4 -p ack -e 40 -c 0 -i 31 -a 0 -x {5.0 0.0 10 ------- null}
h -t 0.764613333333333 -s 5 -d 4 -p ack -e 40 -c 0 -i 31 -a 0 -x {5.0 0.0 -1 ------- null}
r -t 0.77104 -s 1 -d 4 -p tcp -e 1540 -c 0 -i 17 -a 0 -x {0.0 5.0 11 ------- null}
+ -t 0.77104 -s 4 -d 5 -p tcp -e 1540 -c 0 -i 17 -a 0 -x {0.0 5.0 11 ------- null}
- -t 0.77104 -s 4 -d 5 -p tcp -e 1540 -c 0 -i 17 -a 0 -x {0.0 5.0 11 ------- null}
h -t 0.77104 -s 4 -d 5 -p tcp -e 1540 -c 0 -i 17 -a 0 -x {0.0 5.0 -1 ------- null}
r -t 0.775253333333333 -s 5 -d 4 -p ack -e 40 -c 0 -i 31 -a 0 -x {5.0 0.0 10 ------- null}
+ -t 0.775253333333333 -s 4 -d 1 -p ack -e 40 -c 0 -i 31 -a 0 -x {5.0 0.0 10 ------- null}
- -t 0.775253333333333 -s 4 -d 1 -p ack -e 40 -c 0 -i 31 -a 0 -x {5.0 0.0 10 ------- null}
h -t 0.775253333333333 -s 4 -d 1 -p ack -e 40 -c 0 -i 31 -a 0 -x {5.0 0.0 -1 ------- null}
r -t 0.78632 -s 4 -d 1 -p ack -e 40 -c 0 -i 31 -a 0 -x {5.0 0.0 10 ------- null}
+ -t 0.78632 -s 1 -d 0 -p ack -e 40 -c 0 -i 31 -a 0 -x {5.0 0.0 10 ------- null}
- -t 0.78632 -s 1 -d 0 -p ack -e 40 -c 0 -i 31 -a 0 -x {5.0 0.0 10 ------- null}
h -t 0.78632 -s 1 -d 0 -p ack -e 40 -c 0 -i 31 -a 0 -x {5.0 0.0 -1 ------- null}
- -t 0.792106666666667 -s 0 -d 1 -p tcp -e 1540 -c 0 -i 21 -a 0 -x {0.0 5.0 14 ------- null}
h -t 0.792106666666667 -s 0 -d 1 -p tcp -e 1540 -c 0 -i 21 -a 0 -x {0.0 5.0 -1 ------- null}
r -t 0.797386666666667 -s 1 -d 0 -p ack -e 40 -c 0 -i 31 -a 0 -x {5.0 0.0 10 ------- null}
+ -t 0.797386666666667 -s 0 -d 1 -p tcp -e 1540 -c 0 -i 32 -a 0 -x {0.0 5.0 21 ------- null}
+ -t 0.797386666666667 -s 0 -d 1 -p tcp -e 1540 -c 0 -i 33 -a 0 -x {0.0 5.0 22 ------- null}
r -t 0.802106666666667 -s 0 -d 1 -p tcp -e 1540 -c 0 -i 20 -a 0 -x {0.0 5.0 13 ------- null}
+ -t 0.802106666666667 -s 1 -d 4 -p tcp -e 1540 -c 0 -i 20 -a 0 -x {0.0 5.0 13 ------- null}
- -t 0.802106666666667 -s 1 -d 4 -p tcp -e 1540 -c 0 -i 20 -a 0 -x {0.0 5.0 13 ------- null}
h -t 0.802106666666667 -s 1 -d 4 -p tcp -e 1540 -c 0 -i 20 -a 0 -x {0.0 5.0 -1 ------- null}
r -t 0.80568 -s 4 -d 5 -p tcp -e 1540 -c 0 -i 17 -a 0 -x {0.0 5.0 11 ------- null}
+ -t 0.80568 -s 5 -d 4 -p ack -e 40 -c 0 -i 34 -a 0 -x {5.0 0.0 11 ------- null}
- -t 0.80568 -s 5 -d 4 -p ack -e 40 -c 0 -i 34 -a 0 -x {5.0 0.0 11 ------- null}
h -t 0.80568 -s 5 -d 4 -p ack -e 40 -c 0 -i 34 -a 0 -x {5.0 0.0 -1 ------- null}
r -t 0.812106666666667 -s 1 -d 4 -p tcp -e 1540 -c 0 -i 18 -a 0 -x {0.0 5.0 12 ------- null}
+ -t 0.812106666666667 -s 4 -d 5 -p tcp -e 1540 -c 0 -i 18 -a 0 -x {0.0 5.0 12 ------- null}
- -t 0.812106666666667 -s 4 -d 5 -p tcp -e 1540 -c 0 -i 18 -a 0 -x {0.0 5.0 12 ------- null}
h -t 0.812106666666667 -s 4 -d 5 -p tcp -e 1540 -c 0 -i 18 -a 0 -x {0.0 5.0 -1 ------- null}
r -t 0.81632 -s 5 -d 4 -p ack -e 40 -c 0 -i 34 -a 0 -x {5.0 0.0 11 ------- null}
+ -t 0.81632 -s 4 -d 1 -p ack -e 40 -c 0 -i 34 -a 0 -x {5.0 0.0 11 ------- null}
- -t 0.81632 -s 4 -d 1 -p ack -e 40 -c 0 -i 34 -a 0 -x {5.0 0.0 11 ------- null}
h -t 0.81632 -s 4 -d 1 -p ack -e 40 -c 0 -i 34 -a 0 -x {5.0 0.0 -1 ------- null}
r -t 0.827386666666667 -s 4 -d 1 -p ack -e 40 -c 0 -i 34 -a 0 -x {5.0 0.0 11 ------- null}
+ -t 0.827386666666667 -s 1 -d 0 -p ack -e 40 -c 0 -i 34 -a 0 -x {5.0 0.0 11 ------- null}
- -t 0.827386666666667 -s 1 -d 0 -p ack -e 40 -c 0 -i 34 -a 0 -x {5.0 0.0 11 ------- null}
h -t 0.827386666666667 -s 1 -d 0 -p ack -e 40 -c 0 -i 34 -a 0 -x {5.0 0.0 -1 ------- null}
- -t 0.833173333333334 -s 0 -d 1 -p tcp -e 1540 -c 0 -i 23 -a 0 -x {0.0 5.0 15 ------- null}
h -t 0.833173333333334 -s 0 -d 1 -p tcp -e 1540 -c 0 -i 23 -a 0 -x {0.0 5.0 -1 ------- null}
r -t 0.838453333333333 -s 1 -d 0 -p ack -e 40 -c 0 -i 34 -a 0 -x {5.0 0.0 11 ------- null}
+ -t 0.838453333333333 -s 0 -d 1 -p tcp -e 1540 -c 0 -i 35 -a 0 -x {0.0 5.0 23 ------- null}
+ -t 0.838453333333333 -s 0 -d 1 -p tcp -e 1540 -c 0 -i 36 -a 0 -x {0.0 5.0 24 ------- null}
r -t 0.843173333333334 -s 0 -d 1 -p tcp -e 1540 -c 0 -i 21 -a 0 -x {0.0 5.0 14 ------- null}
+ -t 0.843173333333334 -s 1 -d 4 -p tcp -e 1540 -c 0 -i 21 -a 0 -x {0.0 5.0 14 ------- null}
- -t 0.843173333333334 -s 1 -d 4 -p tcp -e 1540 -c 0 -i 21 -a 0 -x {0.0 5.0 14 ------- null}
h -t 0.843173333333334 -s 1 -d 4 -p tcp -e 1540 -c 0 -i 21 -a 0 -x {0.0 5.0 -1 ------- null}
r -t 0.846746666666667 -s 4 -d 5 -p tcp -e 1540 -c 0 -i 18 -a 0 -x {0.0 5.0 12 ------- null}
+ -t 0.846746666666667 -s 5 -d 4 -p ack -e 40 -c 0 -i 37 -a 0 -x {5.0 0.0 12 ------- null}
- -t 0.846746666666667 -s 5 -d 4 -p ack -e 40 -c 0 -i 37 -a 0 -x {5.0 0.0 12 ------- null}
h -t 0.846746666666667 -s 5 -d 4 -p ack -e 40 -c 0 -i 37 -a 0 -x {5.0 0.0 -1 ------- null}
r -t 0.853173333333334 -s 1 -d 4 -p tcp -e 1540 -c 0 -i 20 -a 0 -x {0.0 5.0 13 ------- null}
+ -t 0.853173333333334 -s 4 -d 5 -p tcp -e 1540 -c 0 -i 20 -a 0 -x {0.0 5.0 13 ------- null}
- -t 0.853173333333334 -s 4 -d 5 -p tcp -e 1540 -c 0 -i 20 -a 0 -x {0.0 5.0 13 ------- null}