+ 0.1 3 2 tcp 40 ------- 0 3.1 0.0 0 0
- 0.1 3 2 tcp 40 ------- 0 3.1 0.0 0 0
r 0.1108 3 2 tcp 40 ------- 0 3.1 0.0 0 0
+ 0.1108 2 0 tcp 40 ------- 0 3.1 0.0 0 0
- 0.1108 2 0 tcp 40 ------- 0 3.1 0.0 0 0
r 0.11296 2 0 tcp 40 ------- 0 3.1 0.0 0 0
+ 0.11296 0 2 ack 40 ------- 0 0.0 3.1 0 1
- 0.11296 0 2 ack 40 ------- 0 0.0 3.1 0 1
r 0.11512 0 2 ack 40 ------- 0 0.0 3.1 0 1
+ 0.11512 2 3 ack 40 ------- 0 0.0 3.1 0 1
- 0.11512 2 3 ack 40 ------- 0 0.0 3.1 0 1
r 0.12592 2 3 ack 40 ------- 0 0.0 3.1 0 1
+ 0.12592 3 2 tcp 1040 ------- 0 3.1 0.0 1 2
- 0.12592 3 2 tcp 1040 ------- 0 3.1 0.0 1 2
+ 0.12592 3 2 tcp 1040 ------- 0 3.1 0.0 2 3
- 0.14672 3 2 tcp 1040 ------- 0 3.1 0.0 2 3
r 0.15672 3 2 tcp 1040 ------- 0 3.1 0.0 1 2
+ 0.15672 2 0 tcp 1040 ------- 0 3.1 0.0 1 2
- 0.15672 2 0 tcp 1040 ------- 0 3.1 0.0 1 2
r 0.16288 2 0 tcp 1040 ------- 0 3.1 0.0 1 2
+ 0.16288 0 2 ack 40 ------- 0 0.0 3.1 1 4
- 0.16288 0 2 ack 40 ------- 0 0.0 3.1 1 4
r 0.16504 0 2 ack 40 ------- 0 0.0 3.1 1 4
+ 0.16504 2 3 ack 40 ------- 0 0.0 3.1 1 4
- 0.16504 2 3 ack 40 ------- 0 0.0 3.1 1 4
r 0.17584 2 3 ack 40 ------- 0 0.0 3.1 1 4
+ 0.17584 3 2 tcp 1040 ------- 0 3.1 0.0 3 5
- 0.17584 3 2 tcp 1040 ------- 0 3.1 0.0 3 5
+ 0.17584 3 2 tcp 1040 ------- 0 3.1 0.0 4 6
r 0.17752 3 2 tcp 1040 ------- 0 3.1 0.0 2 3
+ 0.17752 2 0 tcp 1040 ------- 0 3.1 0.0 2 3
- 0.17752 2 0 tcp 1040 ------- 0 3.1 0.0 2 3
r 0.18368 2 0 tcp 1040 ------- 0 3.1 0.0 2 3
+ 0.18368 0 2 ack 40 ------- 0 0.0 3.1 2 7
- 0.18368 0 2 ack 40 ------- 0 0.0 3.1 2 7
r 0.18584 0 2 ack 40 ------- 0 0.0 3.1 2 7
+ 0.18584 2 3 ack 40 ------- 0 0.0 3.1 2 7
- 0.18584 2 3 ack 40 ------- 0 0.0 3.1 2 7
- 0.19664 3 2 tcp 1040 ------- 0 3.1 0.0 4 6
r 0.19664 2 3 ack 40 ------- 0 0.0 3.1 2 7
+ 0.19664 3 2 tcp 1040 ------- 0 3.1 0.0 5 8
+ 0.19664 3 2 tcp 1040 ------- 0 3.1 0.0 6 9
r 0.20664 3 2 tcp 1040 ------- 0 3.1 0.0 3 5
+ 0.20664 2 0 tcp 1040 ------- 0 3.1 0.0 3 5
- 0.20664 2 0 tcp 1040 ------- 0 3.1 0.0 3 5
r 0.2128 2 0 tcp 1040 ------- 0 3.1 0.0 3 5
+ 0.2128 0 2 ack 40 ------- 0 0.0 3.1 3 10
- 0.2128 0 2 ack 40 ------- 0 0.0 3.1 3 10
r 0.21496 0 2 ack 40 ------- 0 0.0 3.1 3 10
+ 0.21496 2 3 ack 40 ------- 0 0.0 3.1 3 10
- 0.21496 2 3 ack 40 ------- 0 0.0 3.1 3 10
- 0.21744 3 2 tcp 1040 ------- 0 3.1 0.0 5 8
r 0.22576 2 3 ack 40 ------- 0 0.0 3.1 3 10
+ 0.22576 3 2 tcp 1040 ------- 0 3.1 0.0 7 11
+ 0.22576 3 2 tcp 1040 ------- 0 3.1 0.0 8 12
r 0.22744 3 2 tcp 1040 ------- 0 3.1 0.0 4 6
+ 0.22744 2 0 tcp 1040 ------- 0 3.1 0.0 4 6
- 0.22744 2 0 tcp 1040 ------- 0 3.1 0.0 4 6
r 0.2336 2 0 tcp 1040 ------- 0 3.1 0.0 4 6
+ 0.2336 0 2 ack 40 ------- 0 0.0 3.1 4 13
- 0.2336 0 2 ack 40 ------- 0 0.0 3.1 4 13
r 0.23576 0 2 ack 40 ------- 0 0.0 3.1 4 13
+ 0.23576 2 3 ack 40 ------- 0 0.0 3.1 4 13
- 0.23576 2 3 ack 40 ------- 0 0.0 3.1 4 13
- 0.23824 3 2 tcp 1040 ------- 0 3.1 0.0 6 9
r 0.24656 2 3 ack 40 ------- 0 0.0 3.1 4 13
+ 0.24656 3 2 tcp 1040 ------- 0 3.1 0.0 9 14
+ 0.24656 3 2 tcp 1040 ------- 0 3.1 0.0 10 15
r 0.24824 3 2 tcp 1040 ------- 0 3.1 0.0 5 8
+ 0.24824 2 0 tcp 1040 ------- 0 3.1 0.0 5 8
- 0.24824 2 0 tcp 1040 ------- 0 3.1 0.0 5 8
r 0.2544 2 0 tcp 1040 ------- 0 3.1 0.0 5 8
+ 0.2544 0 2 ack 40 ------- 0 0.0 3.1 5 16
- 0.2544 0 2 ack 40 ------- 0 0.0 3.1 5 16
r 0.25656 0 2 ack 40 ------- 0 0.0 3.1 5 16
+ 0.25656 2 3 ack 40 ------- 0 0.0 3.1 5 16
- 0.25656 2 3 ack 40 ------- 0 0.0 3.1 5 16
- 0.25904 3 2 tcp 1040 ------- 0 3.1 0.0 7 11
r 0.26736 2 3 ack 40 ------- 0 0.0 3.1 5 16
+ 0.26736 3 2 tcp 1040 ------- 0 3.1 0.0 11 17
+ 0.26736 3 2 tcp 1040 ------- 0 3.1 0.0 12 18
r 0.26904 3 2 tcp 1040 ------- 0 3.1 0.0 6 9
+ 0.26904 2 0 tcp 1040 ------- 0 3.1 0.0 6 9
- 0.26904 2 0 tcp 1040 ------- 0 3.1 0.0 6 9
r 0.2752 2 0 tcp 1040 ------- 0 3.1 0.0 6 9
+ 0.2752 0 2 ack 40 ------- 0 0.0 3.1 6 19
- 0.2752 0 2 ack 40 ------- 0 0.0 3.1 6 19
r 0.27736 0 2 ack 40 ------- 0 0.0 3.1 6 19
+ 0.27736 2 3 ack 40 ------- 0 0.0 3.1 6 19
- 0.27736 2 3 ack 40 ------- 0 0.0 3.1 6 19
- 0.27984 3 2 tcp 1040 ------- 0 3.1 0.0 8 12
r 0.28816 2 3 ack 40 ------- 0 0.0 3.1 6 19
+ 0.28816 3 2 tcp 1040 ------- 0 3.1 0.0 13 20
+ 0.28816 3 2 tcp 1040 ------- 0 3.1 0.0 14 21
r 0.28984 3 2 tcp 1040 ------- 0 3.1 0.0 7 11
+ 0.28984 2 0 tcp 1040 ------- 0 3.1 0.0 7 11
- 0.28984 2 0 tcp 1040 ------- 0 3.1 0.0 7 11
r 0.296 2 0 tcp 1040 ------- 0 3.1 0.0 7 11
+ 0.296 0 2 ack 40 ------- 0 0.0 3.1 7 22
- 0.296 0 2 ack 40 ------- 0 0.0 3.1 7 22
r 0.29816 0 2 ack 40 ------- 0 0.0 3.1 7 22
+ 0.29816 2 3 ack 40 ------- 0 0.0 3.1 7 22
- 0.29816 2 3 ack 40 ------- 0 0.0 3.1 7 22
- 0.30064 3 2 tcp 1040 ------- 0 3.1 0.0 9 14
r 0.30896 2 3 ack 40 ------- 0 0.0 3.1 7 22
+ 0.30896 3 2 tcp 1040 ------- 0 3.1 0.0 15 23
+ 0.30896 3 2 tcp 1040 ------- 0 3.1 0.0 16 24
r 0.31064 3 2 tcp 1040 ------- 0 3.1 0.0 8 12
+ 0.31064 2 0 tcp 1040 ------- 0 3.1 0.0 8 12
- 0.31064 2 0 tcp 1040 ------- 0 3.1 0.0 8 12
r 0.3168 2 0 tcp 1040 ------- 0 3.1 0.0 8 12
+ 0.3168 0 2 ack 40 ------- 0 0.0 3.1 8 25
- 0.3168 0 2 ack 40 ------- 0 0.0 3.1 8 25
r 0.31896 0 2 ack 40 ------- 0 0.0 3.1 8 25
+ 0.31896 2 3 ack 40 ------- 0 0.0 3.1 8 25
- 0.31896 2 3 ack 40 ------- 0 0.0 3.1 8 25
- 0.32144 3 2 tcp 1040 ------- 0 3.1 0.0 10 15
r 0.32976 2 3 ack 40 ------- 0 0.0 3.1 8 25
+ 0.32976 3 2 tcp 1040 ------- 0 3.1 0.0 17 26
+ 0.32976 3 2 tcp 1040 ------- 0 3.1 0.0 18 27
r 0.33144 3 2 tcp 1040 ------- 0 3.1 0.0 9 14
+ 0.33144 2 0 tcp 1040 ------- 0 3.1 0.0 9 14
- 0.33144 2 0 tcp 1040 ------- 0 3.1 0.0 9 14
r 0.3376 2 0 tcp 1040 ------- 0 3.1 0.0 9 14
+ 0.3376 0 2 ack 40 ------- 0 0.0 3.1 9 28
- 0.3376 0 2 ack 40 ------- 0 0.0 3.1 9 28
r 0.33976 0 2 ack 40 ------- 0 0.0 3.1 9 28
+ 0.33976 2 3 ack 40 ------- 0 0.0 3.1 9 28
- 0.33976 2 3 ack 40 ------- 0 0.0 3.1 9 28
- 0.34224 3 2 tcp 1040 ------- 0 3.1 0.0 11 17
r 0.35056 2 3 ack 40 ------- 0 0.0 3.1 9 28
+ 0.35056 3 2 tcp 1040 ------- 0 3.1 0.0 19 29
+ 0.35056 3 2 tcp 1040 ------- 0 3.1 0.0 20 30
r 0.35224 3 2 tcp 1040 ------- 0 3.1 0.0 10 15
+ 0.35224 2 0 tcp 1040 ------- 0 3.1 0.0 10 15
- 0.35224 2 0 tcp 1040 ------- 0 3.1 0.0 10 15
r 0.3584 2 0 tcp 1040 ------- 0 3.1 0.0 10 15
+ 0.3584 0 2 ack 40 ------- 0 0.0 3.1 10 31
- 0.3584 0 2 ack 40 ------- 0 0.0 3.1 10 31
r 0.36056 0 2 ack 40 ------- 0 0.0 3.1 10 31
+ 0.36056 2 3 ack 40 ------- 0 0.0 3.1 10 31
- 0.36056 2 3 ack 40 ------- 0 0.0 3.1 10 31
- 0.36304 3 2 tcp 1040 ------- 0 3.1 0.0 12 18
r 0.37136 2 3 ack 40 ------- 0 0.0 3.1 10 31
+ 0.37136 3 2 tcp 1040 ------- 0 3.1 0.0 21 32
+ 0.37136 3 2 tcp 1040 ------- 0 3.1 0.0 22 33
r 0.37304 3 2 tcp 1040 ------- 0 3.1 0.0 11 17
+ 0.37304 2 0 tcp 1040 ------- 0 3.1 0.0 11 17
- 0.37304 2 0 tcp 1040 ------- 0 3.1 0.0 11 17
r 0.3792 2 0 tcp 1040 ------- 0 3.1 0.0 11 17
+ 0.3792 0 2 ack 40 ------- 0 0.0 3.1 11 34
- 0.3792 0 2 ack 40 ------- 0 0.0 3.1 11 34
r 0.38136 0 2 ack 40 ------- 0 0.0 3.1 11 34
+ 0.38136 2 3 ack 40 ------- 0 0.0 3.1 11 34
- 0.38136 2 3 ack 40 ------- 0 0.0 3.1 11 34
- 0.38384 3 2 tcp 1040 ------- 0 3.1 0.0 13 20
r 0.39216 2 3 ack 40 ------- 0 0.0 3.1 11 34
+ 0.39216 3 2 tcp 1040 ------- 0 3.1 0.0 23 35
+ 0.39216 3 2 tcp 1040 ------- 0 3.1 0.0 24 36
r 0.39384 3 2 tcp 1040 ------- 0 3.1 0.0 12 18
+ 0.39384 2 0 tcp 1040 ------- 0 3.1 0.0 12 18
- 0.39384 2 0 tcp 1040 ------- 0 3.1 0.0 12 18
r 0.4 2 0 tcp 1040 ------- 0 3.1 0.0 12 18
+ 0.4 0 2 ack 40 ------- 0 0.0 3.1 12 37
- 0.4 0 2 ack 40 ------- 0 0.0 3.1 12 37
r 0.40216 0 2 ack 40 ------- 0 0.0 3.1 12 37
+ 0.40216 2 3 ack 40 ------- 0 0.0 3.1 12 37
- 0.40216 2 3 ack 40 ------- 0 0.0 3.1 12 37
- 0.40464 3 2 tcp 1040 ------- 0 3.1 0.0 14 21
r 0.41296 2 3 ack 40 ------- 0 0.0 3.1 12 37
+ 0.41296 3 2 tcp 1040 ------- 0 3.1 0.0 25 38
+ 0.41296 3 2 tcp 1040 ------- 0 3.1 0.0 26 39
r 0.41464 3 2 tcp 1040 ------- 0 3.1 0.0 13 20
+ 0.41464 2 0 tcp 1040 ------- 0 3.1 0.0 13 20
- 0.41464 2 0 tcp 1040 ------- 0 3.1 0.0 13 20
r 0.4208 2 0 tcp 1040 ------- 0 3.1 0.0 13 20
+ 0.4208 0 2 ack 40 ------- 0 0.0 3.1 13 40
- 0.4208 0 2 ack 40 ------- 0 0.0 3.1 13 40
r 0.42296 0 2 ack 40 ------- 0 0.0 3.1 13 40
+ 0.42296 2 3 ack 40 ------- 0 0.0 3.1 13 40
- 0.42296 2 3 ack 40 ------- 0 0.0 3.1 13 40
- 0.42544 3 2 tcp 1040 ------- 0 3.1 0.0 15 23
r 0.43376 2 3 ack 40 ------- 0 0.0 3.1 13 40
+ 0.43376 3 2 tcp 1040 ------- 0 3.1 0.0 27 41
+ 0.43376 3 2 tcp 1040 ------- 0 3.1 0.0 28 42
r 0.43544 3 2 tcp 1040 ------- 0 3.1 0.0 14 21
+ 0.43544 2 0 tcp 1040 ------- 0 3.1 0.0 14 21
- 0.43544 2 0 tcp 1040 ------- 0 3.1 0.0 14 21
r 0.4416 2 0 tcp 1040 ------- 0 3.1 0.0 14 21
+ 0.4416 0 2 ack 40 ------- 0 0.0 3.1 14 43
- 0.4416 0 2 ack 40 ------- 0 0.0 3.1 14 43
r 0.44376 0 2 ack 40 ------- 0 0.0 3.1 14 43
+ 0.44376 2 3 ack 40 ------- 0 0.0 3.1 14 43
- 0.44376 2 3 ack 40 ------- 0 0.0 3.1 14 43
- 0.44624 3 2 tcp 1040 ------- 0 3.1 0.0 16 24
r 0.45456 2 3 ack 40 ------- 0 0.0 3.1 14 43
+ 0.45456 3 2 tcp 1040 ------- 0 3.1 0.0 29 44
+ 0.45456 3 2 tcp 1040 ------- 0 3.1 0.0 30 45
r 0.45624 3 2 tcp 1040 ------- 0 3.1 0.0 15 23
+ 0.45624 2 0 tcp 1040 ------- 0 3.1 0.0 15 23
- 0.45624 2 0 tcp 1040 ------- 0 3.1 0.0 15 23
r 0.4624 2 0 tcp 1040 ------- 0 3.1 0.0 15 23
+ 0.4624 0 2 ack 40 ------- 0 0.0 3.1 15 46
- 0.4624 0 2 ack 40 ------- 0 0.0 3.1 15 46
r 0.46456 0 2 ack 40 ------- 0 0.0 3.1 15 46
+ 0.46456 2 3 ack 40 ------- 0 0.0 3.1 15 46
- 0.46456 2 3 ack 40 ------- 0 0.0 3.1 15 46
- 0.46704 3 2 tcp 1040 ------- 0 3.1 0.0 17 26
r 0.47536 2 3 ack 40 ------- 0 0.0 3.1 15 46
+ 0.47536 3 2 tcp 1040 ------- 0 3.1 0.0 31 47
+ 0.47536 3 2 tcp 1040 ------- 0 3.1 0.0 32 48
r 0.47704 3 2 tcp 1040 ------- 0 3.1 0.0 16 24
+ 0.47704 2 0 tcp 1040 ------- 0 3.1 0.0 16 24
- 0.47704 2 0 tcp 1040 ------- 0 3.1 0.0 16 24
r 0.4832 2 0 tcp 1040 ------- 0 3.1 0.0 16 24
+ 0.4832 0 2 ack 40 ------- 0 0.0 3.1 16 49
- 0.4832 0 2 ack 40 ------- 0 0.0 3.1 16 49
r 0.48536 0 2 ack 40 ------- 0 0.0 3.1 16 49
+ 0.48536 2 3 ack 40 ------- 0 0.0 3.1 16 49
- 0.48536 2 3 ack 40 ------- 0 0.0 3.1 16 49
- 0.48784 3 2 tcp 1040 ------- 0 3.1 0.0 18 27
r 0.49616 2 3 ack 40 ------- 0 0.0 3.1 16 49
+ 0.49616 3 2 tcp 1040 ------- 0 3.1 0.0 33 50
+ 0.49616 3 2 tcp 1040 ------- 0 3.1 0.0 34 51
r 0.49784 3 2 tcp 1040 ------- 0 3.1 0.0 17 26
+ 0.49784 2 0 tcp 1040 ------- 0 3.1 0.0 17 26
- 0.49784 2 0 tcp 1040 ------- 0 3.1 0.0 17 26
r 0.504 2 0 tcp 1040 ------- 0 3.1 0.0 17 26
+ 0.504 0 2 ack 40 ------- 0 0.0 3.1 17 52
- 0.504 0 2 ack 40 ------- 0 0.0 3.1 17 52
r 0.50616 0 2 ack 40 ------- 0 0.0 3.1 17 52
+ 0.50616 2 3 ack 40 ------- 0 0.0 3.1 17 52
- 0.50616 2 3 ack 40 ------- 0 0.0 3.1 17 52
- 0.50864 3 2 tcp 1040 ------- 0 3.1 0.0 19 29
r 0.51696 2 3 ack 40 ------- 0 0.0 3.1 17 52
+ 0.51696 3 2 tcp 1040 ------- 0 3.1 0.0 35 53
+ 0.51696 3 2 tcp 1040 ------- 0 3.1 0.0 36 54
r 0.51864 3 2 tcp 1040 ------- 0 3.1 0.0 18 27
+ 0.51864 2 0 tcp 1040 ------- 0 3.1 0.0 18 27
- 0.51864 2 0 tcp 1040 ------- 0 3.1 0.0 18 27
r 0.5248 2 0 tcp 1040 ------- 0 3.1 0.0 18 27
+ 0.5248 0 2 ack 40 ------- 0 0.0 3.1 18 55
- 0.5248 0 2 ack 40 ------- 0 0.0 3.1 18 55
r 0.52696 0 2 ack 40 ------- 0 0.0 3.1 18 55
+ 0.52696 2 3 ack 40 ------- 0 0.0 3.1 18 55
- 0.52696 2 3 ack 40 ------- 0 0.0 3.1 18 55
- 0.52944 3 2 tcp 1040 ------- 0 3.1 0.0 20 30
r 0.53776 2 3 ack 40 ------- 0 0.0 3.1 18 55
+ 0.53776 3 2 tcp 1040 ------- 0 3.1 0.0 37 56
+ 0.53776 3 2 tcp 1040 ------- 0 3.1 0.0 38 57
r 0.53944 3 2 tcp 1040 ------- 0 3.1 0.0 19 29
+ 0.53944 2 0 tcp 1040 ------- 0 3.1 0.0 19 29
- 0.53944 2 0 tcp 1040 ------- 0 3.1 0.0 19 29
r 0.5456 2 0 tcp 1040 ------- 0 3.1 0.0 19 29
+ 0.5456 0 2 ack 40 ------- 0 0.0 3.1 19 58
- 0.5456 0 2 ack 40 ------- 0 0.0 3.1 19 58
r 0.54776 0 2 ack 40 ------- 0 0.0 3.1 19 58
+ 0.54776 2 3 ack 40 ------- 0 0.0 3.1 19 58
- 0.54776 2 3 ack 40 ------- 0 0.0 3.1 19 58
- 0.55024 3 2 tcp 1040 ------- 0 3.1 0.0 21 32
r 0.55856 2 3 ack 40 ------- 0 0.0 3.1 19 58
+ 0.55856 3 2 tcp 1040 ------- 0 3.1 0.0 39 59
r 0.56024 3 2 tcp 1040 ------- 0 3.1 0.0 20 30
+ 0.56024 2 0 tcp 1040 ------- 0 3.1 0.0 20 30
- 0.56024 2 0 tcp 1040 ------- 0 3.1 0.0 20 30
r 0.5664 2 0 tcp 1040 ------- 0 3.1 0.0 20 30
+ 0.5664 0 2 ack 40 ------- 0 0.0 3.1 20 60
- 0.5664 0 2 ack 40 ------- 0 0.0 3.1 20 60
r 0.56856 0 2 ack 40 ------- 0 0.0 3.1 20 60
+ 0.56856 2 3 ack 40 ------- 0 0.0 3.1 20 60
- 0.56856 2 3 ack 40 ------- 0 0.0 3.1 20 60
- 0.57104 3 2 tcp 1040 ------- 0 3.1 0.0 22 33
r 0.57936 2 3 ack 40 ------- 0 0.0 3.1 20 60
+ 0.57936 3 2 tcp 1040 ------- 0 3.1 0.0 40 61
r 0.58104 3 2 tcp 1040 ------- 0 3.1 0.0 21 32
+ 0.58104 2 0 tcp 1040 ------- 0 3.1 0.0 21 32
- 0.58104 2 0 tcp 1040 ------- 0 3.1 0.0 21 32
r 0.5872 2 0 tcp 1040 ------- 0 3.1 0.0 21 32
+ 0.5872 0 2 ack 40 ------- 0 0.0 3.1 21 62
- 0.5872 0 2 ack 40 ------- 0 0.0 3.1 21 62
r 0.58936 0 2 ack 40 ------- 0 0.0 3.1 21 62
+ 0.58936 2 3 ack 40 ------- 0 0.0 3.1 21 62
- 0.58936 2 3 ack 40 ------- 0 0.0 3.1 21 62
- 0.59184 3 2 tcp 1040 ------- 0 3.1 0.0 23 35
r 0.60016 2 3 ack 40 ------- 0 0.0 3.1 21 62
+ 0.60016 3 2 tcp 1040 ------- 0 3.1 0.0 41 63
r 0.60184 3 2 tcp 1040 ------- 0 3.1 0.0 22 33
+ 0.60184 2 0 tcp 1040 ------- 0 3.1 0.0 22 33
- 0.60184 2 0 tcp 1040 ------- 0 3.1 0.0 22 33
r 0.608 2 0 tcp 1040 ------- 0 3.1 0.0 22 33
+ 0.608 0 2 ack 40 ------- 0 0.0 3.1 22 64
- 0.608 0 2 ack 40 ------- 0 0.0 3.1 22 64
r 0.61016 0 2 ack 40 ------- 0 0.0 3.1 22 64
+ 0.61016 2 3 ack 40 ------- 0 0.0 3.1 22 64
- 0.61016 2 3 ack 40 ------- 0 0.0 3.1 22 64
- 0.61264 3 2 tcp 1040 ------- 0 3.1 0.0 24 36
r 0.62096 2 3 ack 40 ------- 0 0.0 3.1 22 64
+ 0.62096 3 2 tcp 1040 ------- 0 3.1 0.0 42 65
r 0.62264 3 2 tcp 1040 ------- 0 3.1 0.0 23 35
+ 0.62264 2 0 tcp 1040 ------- 0 3.1 0.0 23 35
- 0.62264 2 0 tcp 1040 ------- 0 3.1 0.0 23 35
r 0.6288 2 0 tcp 1040 ------- 0 3.1 0.0 23 35
+ 0.6288 0 2 ack 40 ------- 0 0.0 3.1 23 66
- 0.6288 0 2 ack 40 ------- 0 0.0 3.1 23 66
r 0.63096 0 2 ack 40 ------- 0 0.0 3.1 23 66
+ 0.63096 2 3 ack 40 ------- 0 0.0 3.1 23 66
- 0.63096 2 3 ack 40 ------- 0 0.0 3.1 23 66
- 0.63344 3 2 tcp 1040 ------- 0 3.1 0.0 25 38
r 0.64176 2 3 ack 40 ------- 0 0.0 3.1 23 66
+ 0.64176 3 2 tcp 1040 ------- 0 3.1 0.0 43 67
r 0.64344 3 2 tcp 1040 ------- 0 3.1 0.0 24 36
+ 0.64344 2 0 tcp 1040 ------- 0 3.1 0.0 24 36
- 0.64344 2 0 tcp 1040 ------- 0 3.1 0.0 24 36
r 0.6496 2 0 tcp 1040 ------- 0 3.1 0.0 24 36
+ 0.6496 0 2 ack 40 ------- 0 0.0 3.1 24 68
- 0.6496 0 2 ack 40 ------- 0 0.0 3.1 24 68
r 0.65176 0 2 ack 40 ------- 0 0.0 3.1 24 68
+ 0.65176 2 3 ack 40 ------- 0 0.0 3.1 24 68
- 0.65176 2 3 ack 40 ------- 0 0.0 3.1 24 68
- 0.65424 3 2 tcp 1040 ------- 0 3.1 0.0 26 39
r 0.66256 2 3 ack 40 ------- 0 0.0 3.1 24 68
+ 0.66256 3 2 tcp 1040 ------- 0 3.1 0.0 44 69
r 0.66424 3 2 tcp 1040 ------- 0 3.1 0.0 25 38
+ 0.66424 2 0 tcp 1040 ------- 0 3.1 0.0 25 38
- 0.66424 2 0 tcp 1040 ------- 0 3.1 0.0 25 38
r 0.6704 2 0 tcp 1040 ------- 0 3.1 0.0 25 38
+ 0.6704 0 2 ack 40 ------- 0 0.0 3.1 25 70
- 0.6704 0 2 ack 40 ------- 0 0.0 3.1 25 70
r 0.67256 0 2 ack 40 ------- 0 0.0 3.1 25 70
+ 0.67256 2 3 ack 40 ------- 0 0.0 3.1 25 70
- 0.67256 2 3 ack 40 ------- 0 0.0 3.1 25 70
- 0.67504 3 2 tcp 1040 ------- 0 3.1 0.0 27 41
r 0.68336 2 3 ack 40 ------- 0 0.0 3.1 25 70
+ 0.68336 3 2 tcp 1040 ------- 0 3.1 0.0 45 71
r 0.68504 3 2 tcp 1040 ------- 0 3.1 0.0 26 39
+ 0.68504 2 0 tcp 1040 ------- 0 3.1 0.0 26 39
- 0.68504 2 0 tcp 1040 ------- 0 3.1 0.0 26 39
r 0.6912 2 0 tcp 1040 ------- 0 3.1 0.0 26 39
+ 0.6912 0 2 ack 40 ------- 0 0.0 3.1 26 72
- 0.6912 0 2 ack 40 ------- 0 0.0 3.1 26 72
r 0.69336 0 2 ack 40 ------- 0 0.0 3.1 26 72
+ 0.69336 2 3 ack 40 ------- 0 0.0 3.1 26 72
- 0.69336 2 3 ack 40 ------- 0 0.0 3.1 26 72
- 0.69584 3 2 tcp 1040 ------- 0 3.1 0.0 28 42
r 0.70416 2 3 ack 40 ------- 0 0.0 3.1 26 72
+ 0.70416 3 2 tcp 1040 ------- 0 3.1 0.0 46 73
r 0.70584 3 2 tcp 1040 ------- 0 3.1 0.0 27 41
+ 0.70584 2 0 tcp 1040 ------- 0 3.1 0.0 27 41
- 0.70584 2 0 tcp 1040 ------- 0 3.1 0.0 27 41
r 0.712 2 0 tcp 1040 ------- 0 3.1 0.0 27 41
+ 0.712 0 2 ack 40 ------- 0 0.0 3.1 27 74
- 0.712 0 2 ack 40 ------- 0 0.0 3.1 27 74
r 0.71416 0 2 ack 40 ------- 0 0.0 3.1 27 74
+ 0.71416 2 3 ack 40 ------- 0 0.0 3.1 27 74
- 0.71416 2 3 ack 40 ------- 0 0.0 3.1 27 74
- 0.71664 3 2 tcp 1040 ------- 0 3.1 0.0 29 44
r 0.72496 2 3 ack 40 ------- 0 0.0 3.1 27 74
+ 0.72496 3 2 tcp 1040 ------- 0 3.1 0.0 47 75
r 0.72664 3 2 tcp 1040 ------- 0 3.1 0.0 28 42
+ 0.72664 2 0 tcp 1040 ------- 0 3.1 0.0 28 42
- 0.72664 2 0 tcp 1040 ------- 0 3.1 0.0 28 42
r 0.7328 2 0 tcp 1040 ------- 0 3.1 0.0 28 42
+ 0.7328 0 2 ack 40 ------- 0 0.0 3.1 28 76
- 0.7328 0 2 ack 40 ------- 0 0.0 3.1 28 76
r 0.73496 0 2 ack 40 ------- 0 0.0 3.1 28 76
+ 0.73496 2 3 ack 40 ------- 0 0.0 3.1 28 76
- 0.73496 2 3 ack 40 ------- 0 0.0 3.1 28 76
- 0.73744 3 2 tcp 1040 ------- 0 3.1 0.0 30 45
r 0.74576 2 3 ack 40 ------- 0 0.0 3.1 28 76
+ 0.74576 3 2 tcp 1040 ------- 0 3.1 0.0 48 77
r 0.74744 3 2 tcp 1040 ------- 0 3.1 0.0 29 44
+ 0.74744 2 0 tcp 1040 ------- 0 3.1 0.0 29 44
- 0.74744 2 0 tcp 1040 ------- 0 3.1 0.0 29 44
r 0.7536 2 0 tcp 1040 ------- 0 3.1 0.0 29 44
+ 0.7536 0 2 ack 40 ------- 0 0.0 3.1 29 78
- 0.7536 0 2 ack 40 ------- 0 0.0 3.1 29 78
r 0.75576 0 2 ack 40 ------- 0 0.0 3.1 29 78
+ 0.75576 2 3 ack 40 ------- 0 0.0 3.1 29 78
- 0.75576 2 3 ack 40 ------- 0 0.0 3.1 29 78
- 0.75824 3 2 tcp 1040 ------- 0 3.1 0.0 31 47
r 0.76656 2 3 ack 40 ------- 0 0.0 3.1 29 78
+ 0.76656 3 2 tcp 1040 ------- 0 3.1 0.0 49 79
r 0.76824 3 2 tcp 1040 ------- 0 3.1 0.0 30 45
+ 0.76824 2 0 tcp 1040 ------- 0 3.1 0.0 30 45
- 0.76824 2 0 tcp 1040 ------- 0 3.1 0.0 30 45
r 0.7744 2 0 tcp 1040 ------- 0 3.1 0.0 30 45
+ 0.7744 0 2 ack 40 ------- 0 0.0 3.1 30 80
- 0.7744 0 2 ack 40 ------- 0 0.0 3.1 30 80
r 0.77656 0 2 ack 40 ------- 0 0.0 3.1 30 80
+ 0.77656 2 3 ack 40 ------- 0 0.0 3.1 30 80
- 0.77656 2 3 ack 40 ------- 0 0.0 3.1 30 80
- 0.77904 3 2 tcp 1040 ------- 0 3.1 0.0 32 48
r 0.78736 2 3 ack 40 ------- 0 0.0 3.1 30 80
+ 0.78736 3 2 tcp 1040 ------- 0 3.1 0.0 50 81
r 0.78904 3 2 tcp 1040 ------- 0 3.1 0.0 31 47
+ 0.78904 2 0 tcp 1040 ------- 0 3.1 0.0 31 47
- 0.78904 2 0 tcp 1040 ------- 0 3.1 0.0 31 47
r 0.7952 2 0 tcp 1040 ------- 0 3.1 0.0 31 47
+ 0.7952 0 2 ack 40 ------- 0 0.0 3.1 31 82
- 0.7952 0 2 ack 40 ------- 0 0.0 3.1 31 82
r 0.79736 0 2 ack 40 ------- 0 0.0 3.1 31 82
+ 0.79736 2 3 ack 40 ------- 0 0.0 3.1 31 82
- 0.79736 2 3 ack 40 ------- 0 0.0 3.1 31 82
- 0.79984 3 2 tcp 1040 ------- 0 3.1 0.0 33 50
r 0.80816 2 3 ack 40 ------- 0 0.0 3.1 31 82
+ 0.80816 3 2 tcp 1040 ------- 0 3.1 0.0 51 83
r 0.80984 3 2 tcp 1040 ------- 0 3.1 0.0 32 48
+ 0.80984 2 0 tcp 1040 ------- 0 3.1 0.0 32 48
- 0.80984 2 0 tcp 1040 ------- 0 3.1 0.0 32 48
r 0.816 2 0 tcp 1040 ------- 0 3.1 0.0 32 48
+ 0.816 0 2 ack 40 ------- 0 0.0 3.1 32 84
- 0.816 0 2 ack 40 ------- 0 0.0 3.1 32 84
r 0.81816 0 2 ack 40 ------- 0 0.0 3.1 32 84
+ 0.81816 2 3 ack 40 ------- 0 0.0 3.1 32 84
- 0.81816 2 3 ack 40 ------- 0 0.0 3.1 32 84
- 0.82064 3 2 tcp 1040 ------- 0 3.1 0.0 34 51
r 0.82896 2 3 ack 40 ------- 0 0.0 3.1 32 84
+ 0.82896 3 2 tcp 1040 ------- 0 3.1 0.0 52 85
r 0.83064 3 2 tcp 1040 ------- 0 3.1 0.0 33 50
+ 0.83064 2 0 tcp 1040 ------- 0 3.1 0.0 33 50
- 0.83064 2 0 tcp 1040 ------- 0 3.1 0.0 33 50
r 0.8368 2 0 tcp 1040 ------- 0 3.1 0.0 33 50
+ 0.8368 0 2 ack 40 ------- 0 0.0 3.1 33 86
- 0.8368 0 2 ack 40 ------- 0 0.0 3.1 33 86
r 0.83896 0 2 ack 40 ------- 0 0.0 3.1 33 86
+ 0.83896 2 3 ack 40 ------- 0 0.0 3.1 33 86
- 0.83896 2 3 ack 40 ------- 0 0.0 3.1 33 86
- 0.84144 3 2 tcp 1040 ------- 0 3.1 0.0 35 53
r 0.84976 2 3 ack 40 ------- 0 0.0 3.1 33 86
+ 0.84976 3 2 tcp 1040 ------- 0 3.1 0.0 53 87
r 0.85144 3 2 tcp 1040 ------- 0 3.1 0.0 34 51
+ 0.85144 2 0 tcp 1040 ------- 0 3.1 0.0 34 51
- 0.85144 2 0 tcp 1040 ------- 0 3.1 0.0 34 51
r 0.8576 2 0 tcp 1040 ------- 0 3.1 0.0 34 51
+ 0.8576 0 2 ack 40 ------- 0 0.0 3.1 34 88
- 0.8576 0 2 ack 40 ------- 0 0.0 3.1 34 88
r 0.85976 0 2 ack 40 ------- 0 0.0 3.1 34 88
+ 0.85976 2 3 ack 40 ------- 0 0.0 3.1 34 88
- 0.85976 2 3 ack 40 ------- 0 0.0 3.1 34 88
- 0.86224 3 2 tcp 1040 ------- 0 3.1 0.0 36 54
r 0.87056 2 3 ack 40 ------- 0 0.0 3.1 34 88
+ 0.87056 3 2 tcp 1040 ------- 0 3.1 0.0 54 89
r 0.87224 3 2 tcp 1040 ------- 0 3.1 0.0 35 53
+ 0.87224 2 0 tcp 1040 ------- 0 3.1 0.0 35 53
- 0.87224 2 0 tcp 1040 ------- 0 3.1 0.0 35 53
r 0.8784 2 0 tcp 1040 ------- 0 3.1 0.0 35 53
+ 0.8784 0 2 ack 40 ------- 0 0.0 3.1 35 90
- 0.8784 0 2 ack 40 ------- 0 0.0 3.1 35 90
r 0.88056 0 2 ack 40 ------- 0 0.0 3.1 35 90
+ 0.88056 2 3 ack 40 ------- 0 0.0 3.1 35 90
- 0.88056 2 3 ack 40 ------- 0 0.0 3.1 35 90
- 0.88304 3 2 tcp 1040 ------- 0 3.1 0.0 37 56
r 0.89136 2 3 ack 40 ------- 0 0.0 3.1 35 90
+ 0.89136 3 2 tcp 1040 ------- 0 3.1 0.0 55 91
r 0.89304 3 2 tcp 1040 ------- 0 3.1 0.0 36 54
+ 0.89304 2 0 tcp 1040 ------- 0 3.1 0.0 36 54
- 0.89304 2 0 tcp 1040 ------- 0 3.1 0.0 36 54
r 0.8992 2 0 tcp 1040 ------- 0 3.1 0.0 36 54
+ 0.8992 0 2 ack 40 ------- 0 0.0 3.1 36 92
- 0.8992 0 2 ack 40 ------- 0 0.0 3.1 36 92
r 0.90136 0 2 ack 40 ------- 0 0.0 3.1 36 92
+ 0.90136 2 3 ack 40 ------- 0 0.0 3.1 36 92
- 0.90136 2 3 ack 40 ------- 0 0.0 3.1 36 92
- 0.90384 3 2 tcp 1040 ------- 0 3.1 0.0 38 57
r 0.91216 2 3 ack 40 ------- 0 0.0 3.1 36 92
+ 0.91216 3 2 tcp 1040 ------- 0 3.1 0.0 56 93
r 0.91384 3 2 tcp 1040 ------- 0 3.1 0.0 37 56
+ 0.91384 2 0 tcp 1040 ------- 0 3.1 0.0 37 56
- 0.91384 2 0 tcp 1040 ------- 0 3.1 0.0 37 56
r 0.92 2 0 tcp 1040 ------- 0 3.1 0.0 37 56
+ 0.92 0 2 ack 40 ------- 0 0.0 3.1 37 94
- 0.92 0 2 ack 40 ------- 0 0.0 3.1 37 94
r 0.92216 0 2 ack 40 ------- 0 0.0 3.1 37 94
+ 0.92216 2 3 ack 40 ------- 0 0.0 3.1 37 94
- 0.92216 2 3 ack 40 ------- 0 0.0 3.1 37 94
- 0.92464 3 2 tcp 1040 ------- 0 3.1 0.0 39 59
r 0.93296 2 3 ack 40 ------- 0 0.0 3.1 37 94
+ 0.93296 3 2 tcp 1040 ------- 0 3.1 0.0 57 95
r 0.93464 3 2 tcp 1040 ------- 0 3.1 0.0 38 57
+ 0.93464 2 0 tcp 1040 ------- 0 3.1 0.0 38 57
- 0.93464 2 0 tcp 1040 ------- 0 3.1 0.0 38 57
r 0.9408 2 0 tcp 1040 ------- 0 3.1 0.0 38 57
+ 0.9408 0 2 ack 40 ------- 0 0.0 3.1 38 96
- 0.9408 0 2 ack 40 ------- 0 0.0 3.1 38 96
r 0.94296 0 2 ack 40 ------- 0 0.0 3.1 38 96
+ 0.94296 2 3 ack 40 ------- 0 0.0 3.1 38 96
- 0.94296 2 3 ack 40 ------- 0 0.0 3.1 38 96
- 0.94544 3 2 tcp 1040 ------- 0 3.1 0.0 40 61
r 0.95376 2 3 ack 40 ------- 0 0.0 3.1 38 96
+ 0.95376 3 2 tcp 1040 ------- 0 3.1 0.0 58 97
r 0.95544 3 2 tcp 1040 ------- 0 3.1 0.0 39 59
+ 0.95544 2 0 tcp 1040 ------- 0 3.1 0.0 39 59
- 0.95544 2 0 tcp 1040 ------- 0 3.1 0.0 39 59
r 0.9616 2 0 tcp 1040 ------- 0 3.1 0.0 39 59
+ 0.9616 0 2 ack 40 ------- 0 0.0 3.1 39 98
- 0.9616 0 2 ack 40 ------- 0 0.0 3.1 39 98
r 0.96376 0 2 ack 40 ------- 0 0.0 3.1 39 98
+ 0.96376 2 3 ack 40 ------- 0 0.0 3.1 39 98
- 0.96376 2 3 ack 40 ------- 0 0.0 3.1 39 98
- 0.96624 3 2 tcp 1040 ------- 0 3.1 0.0 41 63
r 0.97456 2 3 ack 40 ------- 0 0.0 3.1 39 98
+ 0.97456 3 2 tcp 1040 ------- 0 3.1 0.0 59 99
r 0.97624 3 2 tcp 1040 ------- 0 3.1 0.0 40 61
+ 0.97624 2 0 tcp 1040 ------- 0 3.1 0.0 40 61
- 0.97624 2 0 tcp 1040 ------- 0 3.1 0.0 40 61
r 0.9824 2 0 tcp 1040 ------- 0 3.1 0.0 40 61
+ 0.9824 0 2 ack 40 ------- 0 0.0 3.1 40 100
- 0.9824 0 2 ack 40 ------- 0 0.0 3.1 40 100
r 0.98456 0 2 ack 40 ------- 0 0.0 3.1 40 100
+ 0.98456 2 3 ack 40 ------- 0 0.0 3.1 40 100
- 0.98456 2 3 ack 40 ------- 0 0.0 3.1 40 100
- 0.98704 3 2 tcp 1040 ------- 0 3.1 0.0 42 65
r 0.99536 2 3 ack 40 ------- 0 0.0 3.1 40 100
+ 0.99536 3 2 tcp 1040 ------- 0 3.1 0.0 60 101
r 0.99704 3 2 tcp 1040 ------- 0 3.1 0.0 41 63
+ 0.99704 2 0 tcp 1040 ------- 0 3.1 0.0 41 63
- 0.99704 2 0 tcp 1040 ------- 0 3.1 0.0 41 63
r 1.0032 2 0 tcp 1040 ------- 0 3.1 0.0 41 63
+ 1.0032 0 2 ack 40 ------- 0 0.0 3.1 41 102
- 1.0032 0 2 ack 40 ------- 0 0.0 3.1 41 102
r 1.00536 0 2 ack 40 ------- 0 0.0 3.1 41 102
+ 1.00536 2 3 ack 40 ------- 0 0.0 3.1 41 102
- 1.00536 2 3 ack 40 ------- 0 0.0 3.1 41 102
- 1.00784 3 2 tcp 1040 ------- 0 3.1 0.0 43 67
r 1.01616 2 3 ack 40 ------- 0 0.0 3.1 41 102
+ 1.01616 3 2 tcp 1040 ------- 0 3.1 0.0 61 103
r 1.01784 3 2 tcp 1040 ------- 0 3.1 0.0 42 65
+ 1.01784 2 0 tcp 1040 ------- 0 3.1 0.0 42 65
- 1.01784 2 0 tcp 1040 ------- 0 3.1 0.0 42 65
r 1.024 2 0 tcp 1040 ------- 0 3.1 0.0 42 65
+ 1.024 0 2 ack 40 ------- 0 0.0 3.1 42 104
- 1.024 0 2 ack 40 ------- 0 0.0 3.1 42 104
r 1.02616 0 2 ack 40 ------- 0 0.0 3.1 42 104
+ 1.02616 2 3 ack 40 ------- 0 0.0 3.1 42 104
- 1.02616 2 3 ack 40 ------- 0 0.0 3.1 42 104
- 1.02864 3 2 tcp 1040 ------- 0 3.1 0.0 44 69
r 1.03696 2 3 ack 40 ------- 0 0.0 3.1 42 104
+ 1.03696 3 2 tcp 1040 ------- 0 3.1 0.0 62 105
r 1.03864 3 2 tcp 1040 ------- 0 3.1 0.0 43 67
+ 1.03864 2 0 tcp 1040 ------- 0 3.1 0.0 43 67
- 1.03864 2 0 tcp 1040 ------- 0 3.1 0.0 43 67
r 1.0448 2 0 tcp 1040 ------- 0 3.1 0.0 43 67
+ 1.0448 0 2 ack 40 ------- 0 0.0 3.1 43 106
- 1.0448 0 2 ack 40 ------- 0 0.0 3.1 43 106
r 1.04696 0 2 ack 40 ------- 0 0.0 3.1 43 106
+ 1.04696 2 3 ack 40 ------- 0 0.0 3.1 43 106
- 1.04696 2 3 ack 40 ------- 0 0.0 3.1 43 106
- 1.04944 3 2 tcp 1040 ------- 0 3.1 0.0 45 71
r 1.05776 2 3 ack 40 ------- 0 0.0 3.1 43 106
+ 1.05776 3 2 tcp 1040 ------- 0 3.1 0.0 63 107
r 1.05944 3 2 tcp 1040 ------- 0 3.1 0.0 44 69
+ 1.05944 2 0 tcp 1040 ------- 0 3.1 0.0 44 69
- 1.05944 2 0 tcp 1040 ------- 0 3.1 0.0 44 69
r 1.0656 2 0 tcp 1040 ------- 0 3.1 0.0 44 69
+ 1.0656 0 2 ack 40 ------- 0 0.0 3.1 44 108
- 1.0656 0 2 ack 40 ------- 0 0.0 3.1 44 108
r 1.06776 0 2 ack 40 ------- 0 0.0 3.1 44 108
+ 1.06776 2 3 ack 40 ------- 0 0.0 3.1 44 108
- 1.06776 2 3 ack 40 ------- 0 0.0 3.1 44 108
- 1.07024 3 2 tcp 1040 ------- 0 3.1 0.0 46 73
r 1.07856 2 3 ack 40 ------- 0 0.0 3.1 44 108
+ 1.07856 3 2 tcp 1040 ------- 0 3.1 0.0 64 109
r 1.08024 3 2 tcp 1040 ------- 0 3.1 0.0 45 71
+ 1.08024 2 0 tcp 1040 ------- 0 3.1 0.0 45 71
- 1.08024 2 0 tcp 1040 ------- 0 3.1 0.0 45 71
r 1.0864 2 0 tcp 1040 ------- 0 3.1 0.0 45 71
+ 1.0864 0 2 ack 40 ------- 0 0.0 3.1 45 110
- 1.0864 0 2 ack 40 ------- 0 0.0 3.1 45 110
r 1.08856 0 2 ack 40 ------- 0 0.0 3.1 45 110
+ 1.08856 2 3 ack 40 ------- 0 0.0 3.1 45 110
- 1.08856 2 3 ack 40 ------- 0 0.0 3.1 45 110
- 1.09104 3 2 tcp 1040 ------- 0 3.1 0.0 47 75
r 1.09936 2 3 ack 40 ------- 0 0.0 3.1 45 110
+ 1.09936 3 2 tcp 1040 ------- 0 3.1 0.0 65 111
+ 1.1 1 2 cbr 210 ------- 0 1.0 3.0 0 112
- 1.1 1 2 cbr 210 ------- 0 1.0 3.0 0 112
r 1.10104 3 2 tcp 1040 ------- 0 3.1 0.0 46 73
+ 1.10104 2 0 tcp 1040 ------- 0 3.1 0.0 46 73
- 1.10104 2 0 tcp 1040 ------- 0 3.1 0.0 46 73
r 1.10284 1 2 cbr 210 ------- 0 1.0 3.0 0 112
+ 1.10284 2 3 cbr 210 ------- 0 1.0 3.0 0 112
- 1.10284 2 3 cbr 210 ------- 0 1.0 3.0 0 112
+ 1.10375 1 2 cbr 210 ------- 0 1.0 3.0 1 113
- 1.10375 1 2 cbr 210 ------- 0 1.0 3.0 1 113
r 1.10659 1 2 cbr 210 ------- 0 1.0 3.0 1 113
+ 1.10659 2 3 cbr 210 ------- 0 1.0 3.0 1 113
- 1.10704 2 3 cbr 210 ------- 0 1.0 3.0 1 113
r 1.1072 2 0 tcp 1040 ------- 0 3.1 0.0 46 73
+ 1.1072 0 2 ack 40 ------- 0 0.0 3.1 46 114
- 1.1072 0 2 ack 40 ------- 0 0.0 3.1 46 114
+ 1.1075 1 2 cbr 210 ------- 0 1.0 3.0 2 115
- 1.1075 1 2 cbr 210 ------- 0 1.0 3.0 2 115
r 1.10936 0 2 ack 40 ------- 0 0.0 3.1 46 114
+ 1.10936 2 3 ack 40 ------- 0 0.0 3.1 46 114
r 1.11034 1 2 cbr 210 ------- 0 1.0 3.0 2 115
+ 1.11034 2 3 cbr 210 ------- 0 1.0 3.0 2 115
- 1.11124 2 3 ack 40 ------- 0 0.0 3.1 46 114
+ 1.11125 1 2 cbr 210 ------- 0 1.0 3.0 3 116
- 1.11125 1 2 cbr 210 ------- 0 1.0 3.0 3 116
- 1.11184 3 2 tcp 1040 ------- 0 3.1 0.0 48 77
- 1.11204 2 3 cbr 210 ------- 0 1.0 3.0 2 115
r 1.11409 1 2 cbr 210 ------- 0 1.0 3.0 3 116
+ 1.11409 2 3 cbr 210 ------- 0 1.0 3.0 3 116
+ 1.115 1 2 cbr 210 ------- 0 1.0 3.0 4 117
- 1.115 1 2 cbr 210 ------- 0 1.0 3.0 4 117
- 1.11624 2 3 cbr 210 ------- 0 1.0 3.0 3 116
r 1.11704 2 3 cbr 210 ------- 0 1.0 3.0 0 112
r 1.11784 1 2 cbr 210 ------- 0 1.0 3.0 4 117
+ 1.11784 2 3 cbr 210 ------- 0 1.0 3.0 4 117
+ 1.11875 1 2 cbr 210 ------- 0 1.0 3.0 5 118
- 1.11875 1 2 cbr 210 ------- 0 1.0 3.0 5 118
- 1.12044 2 3 cbr 210 ------- 0 1.0 3.0 4 117
r 1.12124 2 3 cbr 210 ------- 0 1.0 3.0 1 113
r 1.12159 1 2 cbr 210 ------- 0 1.0 3.0 5 118
+ 1.12159 2 3 cbr 210 ------- 0 1.0 3.0 5 118
r 1.12184 3 2 tcp 1040 ------- 0 3.1 0.0 47 75
+ 1.12184 2 0 tcp 1040 ------- 0 3.1 0.0 47 75
- 1.12184 2 0 tcp 1040 ------- 0 3.1 0.0 47 75
r 1.12204 2 3 ack 40 ------- 0 0.0 3.1 46 114
+ 1.12204 3 2 tcp 1040 ------- 0 3.1 0.0 66 119
+ 1.1225 1 2 cbr 210 ------- 0 1.0 3.0 6 120
- 1.1225 1 2 cbr 210 ------- 0 1.0 3.0 6 120
- 1.12464 2 3 cbr 210 ------- 0 1.0 3.0 5 118
r 1.12534 1 2 cbr 210 ------- 0 1.0 3.0 6 120
+ 1.12534 2 3 cbr 210 ------- 0 1.0 3.0 6 120
r 1.12624 2 3 cbr 210 ------- 0 1.0 3.0 2 115
+ 1.12625 1 2 cbr 210 ------- 0 1.0 3.0 7 121
- 1.12625 1 2 cbr 210 ------- 0 1.0 3.0 7 121
r 1.128 2 0 tcp 1040 ------- 0 3.1 0.0 47 75
+ 1.128 0 2 ack 40 ------- 0 0.0 3.1 47 122
- 1.128 0 2 ack 40 ------- 0 0.0 3.1 47 122
- 1.12884 2 3 cbr 210 ------- 0 1.0 3.0 6 120
r 1.12909 1 2 cbr 210 ------- 0 1.0 3.0 7 121
+ 1.12909 2 3 cbr 210 ------- 0 1.0 3.0 7 121
+ 1.13 1 2 cbr 210 ------- 0 1.0 3.0 8 123
- 1.13 1 2 cbr 210 ------- 0 1.0 3.0 8 123
r 1.13016 0 2 ack 40 ------- 0 0.0 3.1 47 122
+ 1.13016 2 3 ack 40 ------- 0 0.0 3.1 47 122
r 1.13044 2 3 cbr 210 ------- 0 1.0 3.0 3 116
- 1.13264 3 2 tcp 1040 ------- 0 3.1 0.0 49 79
r 1.13284 1 2 cbr 210 ------- 0 1.0 3.0 8 123
+ 1.13284 2 3 cbr 210 ------- 0 1.0 3.0 8 123
- 1.13304 2 3 cbr 210 ------- 0 1.0 3.0 7 121
+ 1.13375 1 2 cbr 210 ------- 0 1.0 3.0 9 124
- 1.13375 1 2 cbr 210 ------- 0 1.0 3.0 9 124
r 1.13464 2 3 cbr 210 ------- 0 1.0 3.0 4 117
r 1.13659 1 2 cbr 210 ------- 0 1.0 3.0 9 124
+ 1.13659 2 3 cbr 210 ------- 0 1.0 3.0 9 124
- 1.13724 2 3 ack 40 ------- 0 0.0 3.1 47 122
+ 1.1375 1 2 cbr 210 ------- 0 1.0 3.0 10 125
- 1.1375 1 2 cbr 210 ------- 0 1.0 3.0 10 125
- 1.13804 2 3 cbr 210 ------- 0 1.0 3.0 8 123
r 1.13884 2 3 cbr 210 ------- 0 1.0 3.0 5 118
r 1.14034 1 2 cbr 210 ------- 0 1.0 3.0 10 125
+ 1.14034 2 3 cbr 210 ------- 0 1.0 3.0 10 125
+ 1.14125 1 2 cbr 210 ------- 0 1.0 3.0 11 126
- 1.14125 1 2 cbr 210 ------- 0 1.0 3.0 11 126
- 1.14224 2 3 cbr 210 ------- 0 1.0 3.0 9 124
r 1.14264 3 2 tcp 1040 ------- 0 3.1 0.0 48 77